
     Program PWSCF v.6.4.1 starts on 16May2020 at 22:36: 8 

     This program is part of the open-source Quantum ESPRESSO suite
     for quantum simulation of materials; please cite
         "P. Giannozzi et al., J. Phys.:Condens. Matter 21 395502 (2009);
         "P. Giannozzi et al., J. Phys.:Condens. Matter 29 465901 (2017);
          URL http://www.quantum-espresso.org", 
     in publications or presentations arising from this work. More details at
     http://www.quantum-espresso.org/quote

     Parallel version (MPI), running on     1 processors

     MPI processes distributed on     1 nodes
     Reading input from cuau_st_7.48_0.927_12.pw.in

     Current dimensions of program PWSCF are:
     Max number of different atomic species (ntypx) = 10
     Max number of k-points (npk) =  40000
     Max angular momentum in pseudopotentials (lmaxx) =  3
     Message from routine read_upf::
     Pseudo file Au.pbe-dn-rrkjus_psl.0.1.UPF has been fixed on the fly.
To avoid this message in the future, permanently fix 
 your pseudo files following these instructions: 
https://gitlab.com/QEF/q-e/blob/master/upftools/how_to_fix_upf.md
     Message from routine read_upf::
     Pseudo file Cu.pbe-dn-rrkjus_psl.0.2.UPF has been fixed on the fly.
To avoid this message in the future, permanently fix 
 your pseudo files following these instructions: 
https://gitlab.com/QEF/q-e/blob/master/upftools/how_to_fix_upf.md
               file Au.pbe-dn-rrkjus_psl.0.1.UPF: wavefunction(s)  5D renormalized
               file Cu.pbe-dn-rrkjus_psl.0.2.UPF: wavefunction(s)  3D renormalized

     Subspace diagonalization in iterative solution of the eigenvalue problem:
     a serial algorithm will be used


     G-vector sticks info
     --------------------
     sticks:   dense  smooth     PW     G-vecs:    dense   smooth      PW
     Sum        2225     885    277                73305    18507    3157



     bravais-lattice index     =            6
     lattice parameter (alat)  =       7.4800  a.u.
     unit-cell volume          =     387.9578 (a.u.)^3
     number of atoms/cell      =            2
     number of atomic types    =            2
     number of electrons       =        22.00
     number of Kohn-Sham states=           15
     kinetic-energy cutoff     =      50.0000  Ry
     charge density cutoff     =     500.0000  Ry
     convergence threshold     =      1.0E-08
     mixing beta               =       0.7000
     number of iterations used =            8  plain     mixing
     Exchange-correlation      = PBE ( 1  4  3  4 0 0)
     nstep                     =           50


     celldm(1)=   7.480000  celldm(2)=   0.000000  celldm(3)=   0.927000
     celldm(4)=   0.000000  celldm(5)=   0.000000  celldm(6)=   0.000000

     crystal axes: (cart. coord. in units of alat)
               a(1) = (   1.000000   0.000000   0.000000 )  
               a(2) = (   0.000000   1.000000   0.000000 )  
               a(3) = (   0.000000   0.000000   0.927000 )  

     reciprocal axes: (cart. coord. in units 2 pi/alat)
               b(1) = (  1.000000  0.000000  0.000000 )  
               b(2) = (  0.000000  1.000000  0.000000 )  
               b(3) = (  0.000000  0.000000  1.078749 )  


     PseudoPot. # 1 for Au read from file:
     ./Au.pbe-dn-rrkjus_psl.0.1.UPF
     MD5 check sum: 2577dac56bcf5cc3f91526b665170132
     Pseudo is Ultrasoft + core correction, Zval = 11.0
     Generated using "atomic" code by A. Dal Corso v.5.0.2 svn rev. 9415
     Using radial grid of 1279 points,  6 beta functions with: 
                l(1) =   0
                l(2) =   0
                l(3) =   1
                l(4) =   1
                l(5) =   2
                l(6) =   2
     Q(r) pseudized with 0 coefficients 


     PseudoPot. # 2 for Cu read from file:
     ./Cu.pbe-dn-rrkjus_psl.0.2.UPF
     MD5 check sum: 1265fa589247fc99ea3a830f142ff47f
     Pseudo is Ultrasoft + core correction, Zval = 11.0
     Generated using "atomic" code by A. Dal Corso v.5.0.2 svn rev. 9415
     Using radial grid of 1199 points,  6 beta functions with: 
                l(1) =   0
                l(2) =   0
                l(3) =   1
                l(4) =   1
                l(5) =   2
                l(6) =   2
     Q(r) pseudized with 0 coefficients 


     atomic species   valence    mass     pseudopotential
        Au            11.00   196.97000     Au( 1.00)
        Cu            11.00    63.54600     Cu( 1.00)

     16 Sym. Ops., with inversion, found



   Cartesian axes

     site n.     atom                  positions (alat units)
         1           Au  tau(   1) = (   0.0000000   0.0000000   0.0000000  )
         2           Cu  tau(   2) = (   0.5000000   0.5000000   0.4635000  )

     number of k points=   196  Marzari-Vanderbilt smearing, width (Ry)=  0.0250

     Number of k-points >= 100: set verbosity='high' to print them.

     Dense  grid:    73305 G-vectors     FFT dimensions: (  54,  54,  50)

     Smooth grid:    18507 G-vectors     FFT dimensions: (  36,  36,  32)

     Estimated max dynamical RAM per process >     381.38 MB

     Check: negative core charge=   -0.000015

     Initial potential from superposition of free atoms

     starting charge   21.99966, renormalised to   22.00000
     Starting wfcs are   18 randomized atomic wfcs

     total cpu time spent up to now is       18.4 secs

     Self-consistent Calculation

     iteration #  1     ecut=    50.00 Ry     beta= 0.70
     Davidson diagonalization with overlap
     ethr =  1.00E-02,  avg # of iterations =  2.6

     Threshold (ethr) on eigenvalues was too large:
     Diagonalizing with lowered threshold

     Davidson diagonalization with overlap
     ethr =  4.31E-04,  avg # of iterations =  1.3

     total cpu time spent up to now is       48.6 secs

     total energy              =    -202.56893213 Ry
     Harris-Foulkes estimate   =    -202.64585766 Ry
     estimated scf accuracy    <       0.09627462 Ry

     iteration #  2     ecut=    50.00 Ry     beta= 0.70
     Davidson diagonalization with overlap
     ethr =  4.38E-04,  avg # of iterations =  3.5

     total cpu time spent up to now is       71.6 secs

     total energy              =    -202.37728896 Ry
     Harris-Foulkes estimate   =    -202.78025240 Ry
     estimated scf accuracy    <       1.91805242 Ry

     iteration #  3     ecut=    50.00 Ry     beta= 0.70
     Davidson diagonalization with overlap
     ethr =  4.38E-04,  avg # of iterations =  3.0

     total cpu time spent up to now is       90.4 secs

     total energy              =    -202.62413443 Ry
     Harris-Foulkes estimate   =    -202.64064952 Ry
     estimated scf accuracy    <       0.04954253 Ry

     iteration #  4     ecut=    50.00 Ry     beta= 0.70
     Davidson diagonalization with overlap
     ethr =  2.25E-04,  avg # of iterations =  1.8

     total cpu time spent up to now is      105.1 secs

     total energy              =    -202.62842153 Ry
     Harris-Foulkes estimate   =    -202.62981115 Ry
     estimated scf accuracy    <       0.00757312 Ry

     iteration #  5     ecut=    50.00 Ry     beta= 0.70
     Davidson diagonalization with overlap
     ethr =  3.44E-05,  avg # of iterations =  1.9

     total cpu time spent up to now is      119.9 secs

     total energy              =    -202.62890778 Ry
     Harris-Foulkes estimate   =    -202.62911304 Ry
     estimated scf accuracy    <       0.00081820 Ry

     iteration #  6     ecut=    50.00 Ry     beta= 0.70
     Davidson diagonalization with overlap
     ethr =  3.72E-06,  avg # of iterations =  2.5

     total cpu time spent up to now is      135.4 secs

     total energy              =    -202.62900933 Ry
     Harris-Foulkes estimate   =    -202.62901759 Ry
     estimated scf accuracy    <       0.00003258 Ry

     iteration #  7     ecut=    50.00 Ry     beta= 0.70
     Davidson diagonalization with overlap
     ethr =  1.48E-07,  avg # of iterations =  2.6

     total cpu time spent up to now is      152.5 secs

     total energy              =    -202.62901909 Ry
     Harris-Foulkes estimate   =    -202.62901941 Ry
     estimated scf accuracy    <       0.00000060 Ry

     iteration #  8     ecut=    50.00 Ry     beta= 0.70
     Davidson diagonalization with overlap
     ethr =  2.74E-09,  avg # of iterations =  2.8

     total cpu time spent up to now is      171.6 secs

     total energy              =    -202.62901934 Ry
     Harris-Foulkes estimate   =    -202.62901942 Ry
     estimated scf accuracy    <       0.00000025 Ry

     iteration #  9     ecut=    50.00 Ry     beta= 0.70
     Davidson diagonalization with overlap
     ethr =  1.15E-09,  avg # of iterations =  2.0

     total cpu time spent up to now is      186.7 secs

     End of self-consistent calculation

     Number of k-points >= 100: set verbosity='high' to print the bands.

     the Fermi energy is     4.6987 ev

!    total energy              =    -202.62901937 Ry
     Harris-Foulkes estimate   =    -202.62901937 Ry
     estimated scf accuracy    <          2.3E-09 Ry

     The total energy is the sum of the following terms:

     one-electron contribution =     -65.05154062 Ry
     hartree contribution      =      55.31856935 Ry
     xc contribution           =     -72.16191179 Ry
     ewald contribution        =    -120.73461970 Ry
     smearing contrib. (-TS)   =       0.00048338 Ry

     convergence has been achieved in   9 iterations

     Forces acting on atoms (cartesian axes, Ry/au):

     atom    1 type  1   force =     0.00000000    0.00000000    0.00000000
     atom    2 type  2   force =     0.00000000    0.00000000    0.00000000

     Total force =     0.000000     Total SCF correction =     0.000000


     Computing stress (Cartesian axis) and pressure

          total   stress  (Ry/bohr**3)                   (kbar)     P= -138.72
  -0.00093349   0.00000000   0.00000000       -137.32      0.00      0.00
   0.00000000  -0.00093349   0.00000000          0.00   -137.32      0.00
   0.00000000   0.00000000  -0.00096204          0.00      0.00   -141.52


     BFGS Geometry Optimization

     number of scf cycles    =   1
     number of bfgs steps    =   0

     enthalpy new            =    -202.6290193716 Ry

     new trust radius        =       0.0947446657 bohr
     new conv_thr            =       0.0000000100 Ry

     new unit-cell volume =    361.16100 a.u.^3 (    53.51854 Ang^3 )
     density =      8.08312 g/cm^3

CELL_PARAMETERS (alat=  7.48000000)
   0.976662671   0.000000000   0.000000000
   0.000000000   0.976662671   0.000000000
   0.000000000   0.000000000   0.904704755

ATOMIC_POSITIONS (crystal)
Au       0.000000000   0.000000000   0.000000000
Cu       0.500000000   0.500000000   0.500000000



     Writing output data file CuAu_L10.save/
     NEW-OLD atomic charge density approx. for the potential

     Check: negative core charge=   -0.000010
     extrapolated charge   20.36770, renormalised to   22.00000

     total cpu time spent up to now is      223.8 secs

     Self-consistent Calculation

     iteration #  1     ecut=    50.00 Ry     beta= 0.70
     Davidson diagonalization with overlap
     ethr =  1.00E-06,  avg # of iterations =  5.2

     total cpu time spent up to now is      257.7 secs

     total energy              =    -201.35916989 Ry
     Harris-Foulkes estimate   =    -207.89110929 Ry
     estimated scf accuracy    <       1.06787283 Ry

     iteration #  2     ecut=    50.00 Ry     beta= 0.70
     Davidson diagonalization with overlap
     ethr =  4.85E-03,  avg # of iterations =  4.0

     total cpu time spent up to now is      282.7 secs

     total energy              =    -199.78857162 Ry
     Harris-Foulkes estimate   =    -206.55596205 Ry
     estimated scf accuracy    <      43.39125966 Ry

     iteration #  3     ecut=    50.00 Ry     beta= 0.70
     Davidson diagonalization with overlap
     ethr =  4.85E-03,  avg # of iterations =  3.0

     total cpu time spent up to now is      306.0 secs

     total energy              =    -202.48002859 Ry
     Harris-Foulkes estimate   =    -203.04748174 Ry
     estimated scf accuracy    <       2.15742611 Ry

     iteration #  4     ecut=    50.00 Ry     beta= 0.70
     Davidson diagonalization with overlap
     ethr =  4.85E-03,  avg # of iterations =  2.0

     total cpu time spent up to now is      321.0 secs

     total energy              =    -202.67630768 Ry
     Harris-Foulkes estimate   =    -202.70340251 Ry
     estimated scf accuracy    <       0.22523806 Ry

     iteration #  5     ecut=    50.00 Ry     beta= 0.70
     Davidson diagonalization with overlap
     ethr =  1.02E-03,  avg # of iterations =  1.0

     total cpu time spent up to now is      335.0 secs

     total energy              =    -202.66088796 Ry
     Harris-Foulkes estimate   =    -202.67989121 Ry
     estimated scf accuracy    <       0.11623880 Ry

     iteration #  6     ecut=    50.00 Ry     beta= 0.70
     Davidson diagonalization with overlap
     ethr =  5.28E-04,  avg # of iterations =  1.0

     total cpu time spent up to now is      349.2 secs

     total energy              =    -202.65682040 Ry
     Harris-Foulkes estimate   =    -202.66425013 Ry
     estimated scf accuracy    <       0.04070483 Ry

     iteration #  7     ecut=    50.00 Ry     beta= 0.70
     Davidson diagonalization with overlap
     ethr =  1.85E-04,  avg # of iterations =  1.2

     total cpu time spent up to now is      363.5 secs

     total energy              =    -202.65628811 Ry
     Harris-Foulkes estimate   =    -202.65857159 Ry
     estimated scf accuracy    <       0.01083905 Ry

     iteration #  8     ecut=    50.00 Ry     beta= 0.70
     Davidson diagonalization with overlap
     ethr =  4.93E-05,  avg # of iterations =  2.3

     total cpu time spent up to now is      378.6 secs

     total energy              =    -202.65673980 Ry
     Harris-Foulkes estimate   =    -202.65721205 Ry
     estimated scf accuracy    <       0.00229245 Ry

     iteration #  9     ecut=    50.00 Ry     beta= 0.70
     Davidson diagonalization with overlap
     ethr =  1.04E-05,  avg # of iterations =  1.9

     total cpu time spent up to now is      393.3 secs

     total energy              =    -202.65672383 Ry
     Harris-Foulkes estimate   =    -202.65688045 Ry
     estimated scf accuracy    <       0.00053596 Ry

     iteration # 10     ecut=    50.00 Ry     beta= 0.70
     Davidson diagonalization with overlap
     ethr =  2.44E-06,  avg # of iterations =  2.1

     total cpu time spent up to now is      408.2 secs

     total energy              =    -202.65677275 Ry
     Harris-Foulkes estimate   =    -202.65677900 Ry
     estimated scf accuracy    <       0.00001951 Ry

     iteration # 11     ecut=    50.00 Ry     beta= 0.70
     Davidson diagonalization with overlap
     ethr =  8.87E-08,  avg # of iterations =  2.7

     total cpu time spent up to now is      426.5 secs

     total energy              =    -202.65677965 Ry
     Harris-Foulkes estimate   =    -202.65677968 Ry
     estimated scf accuracy    <       0.00000023 Ry

     iteration # 12     ecut=    50.00 Ry     beta= 0.70
     Davidson diagonalization with overlap
     ethr =  1.06E-09,  avg # of iterations =  2.3

     total cpu time spent up to now is      442.2 secs

     total energy              =    -202.65677962 Ry
     Harris-Foulkes estimate   =    -202.65677968 Ry
     estimated scf accuracy    <       0.00000021 Ry

     iteration # 13     ecut=    50.00 Ry     beta= 0.70
     Davidson diagonalization with overlap
     ethr =  9.66E-10,  avg # of iterations =  2.0

     total cpu time spent up to now is      458.5 secs

     total energy              =    -202.65677966 Ry
     Harris-Foulkes estimate   =    -202.65677967 Ry
     estimated scf accuracy    <       0.00000010 Ry

     iteration # 14     ecut=    50.00 Ry     beta= 0.70
     Davidson diagonalization with overlap
     ethr =  4.39E-10,  avg # of iterations =  1.0

     total cpu time spent up to now is      472.3 secs

     total energy              =    -202.65677965 Ry
     Harris-Foulkes estimate   =    -202.65677966 Ry
     estimated scf accuracy    <       0.00000006 Ry

     iteration # 15     ecut=    50.00 Ry     beta= 0.70
     Davidson diagonalization with overlap
     ethr =  2.57E-10,  avg # of iterations =  1.0

     total cpu time spent up to now is      486.2 secs

     total energy              =    -202.65677965 Ry
     Harris-Foulkes estimate   =    -202.65677966 Ry
     estimated scf accuracy    <       0.00000002 Ry

     iteration # 16     ecut=    50.00 Ry     beta= 0.70
     Davidson diagonalization with overlap
     ethr =  9.45E-11,  avg # of iterations =  1.1

     total cpu time spent up to now is      500.2 secs

     End of self-consistent calculation

     Number of k-points >= 100: set verbosity='high' to print the bands.

     the Fermi energy is     5.1094 ev

!    total energy              =    -202.65677965 Ry
     Harris-Foulkes estimate   =    -202.65677965 Ry
     estimated scf accuracy    <          4.7E-09 Ry

     The total energy is the sum of the following terms:

     one-electron contribution =     -60.54006175 Ry
     hartree contribution      =      53.71947960 Ry
     xc contribution           =     -72.21607144 Ry
     ewald contribution        =    -123.64927409 Ry
     smearing contrib. (-TS)   =       0.02914805 Ry

     convergence has been achieved in  16 iterations

     Forces acting on atoms (cartesian axes, Ry/au):

     atom    1 type  1   force =     0.00000000    0.00000000    0.00000000
     atom    2 type  2   force =     0.00000000    0.00000000    0.00000000

     Total force =     0.000000     Total SCF correction =     0.000000


     Computing stress (Cartesian axis) and pressure

          total   stress  (Ry/bohr**3)                   (kbar)     P= -163.12
  -0.00110174   0.00000000   0.00000000       -162.07      0.00      0.00
   0.00000000  -0.00110174   0.00000000          0.00   -162.07      0.00
   0.00000000   0.00000000  -0.00112314          0.00      0.00   -165.22


     number of scf cycles    =   2
     number of bfgs steps    =   1

     enthalpy old            =    -202.6290193716 Ry
     enthalpy new            =    -202.6567796472 Ry

     CASE: enthalpy_new < enthalpy_old


     WARNING: bfgs curvature condition failed, Theta= 0.714
     uphill step: resetting bfgs history

     new trust radius        =       0.1067225151 bohr
     new conv_thr            =            1.0E-10 Ry

     new unit-cell volume =    331.94978 a.u.^3 (    49.18988 Ang^3 )
     density =      8.79443 g/cm^3

CELL_PARAMETERS (alat=  7.48000000)
   0.949761994   0.000000000   0.000000000
   0.000000000   0.949761994   0.000000000
   0.000000000   0.000000000   0.879301901

ATOMIC_POSITIONS (crystal)
Au       0.000000000   0.000000000   0.000000000
Cu       0.500000000   0.500000000   0.500000000



     Writing output data file CuAu_L10.save/
     NEW-OLD atomic charge density approx. for the potential

     Check: negative core charge=   -0.000003
     extrapolated charge   20.06405, renormalised to   22.00000

     total cpu time spent up to now is      536.8 secs

     Self-consistent Calculation

     iteration #  1     ecut=    50.00 Ry     beta= 0.70
     Davidson diagonalization with overlap
     ethr =  1.00E-06,  avg # of iterations =  4.7

     total cpu time spent up to now is      570.6 secs

     total energy              =    -201.11570941 Ry
     Harris-Foulkes estimate   =    -208.52644053 Ry
     estimated scf accuracy    <       1.25306363 Ry

     iteration #  2     ecut=    50.00 Ry     beta= 0.70
     Davidson diagonalization with overlap
     ethr =  5.70E-03,  avg # of iterations =  4.0

     total cpu time spent up to now is      595.9 secs

     total energy              =    -199.81652432 Ry
     Harris-Foulkes estimate   =    -207.05875794 Ry
     estimated scf accuracy    <      44.37979365 Ry

     iteration #  3     ecut=    50.00 Ry     beta= 0.70
     Davidson diagonalization with overlap
     ethr =  5.70E-03,  avg # of iterations =  3.0

     total cpu time spent up to now is      619.4 secs

     total energy              =    -202.48649151 Ry
     Harris-Foulkes estimate   =    -203.16831518 Ry
     estimated scf accuracy    <       2.49168576 Ry

     iteration #  4     ecut=    50.00 Ry     beta= 0.70
     Davidson diagonalization with overlap
     ethr =  5.70E-03,  avg # of iterations =  2.0

     total cpu time spent up to now is      634.6 secs

     total energy              =    -202.71374786 Ry
     Harris-Foulkes estimate   =    -202.76435162 Ry
     estimated scf accuracy    <       0.47109246 Ry

     iteration #  5     ecut=    50.00 Ry     beta= 0.70
     Davidson diagonalization with overlap
     ethr =  2.14E-03,  avg # of iterations =  1.0

     total cpu time spent up to now is      648.7 secs

     total energy              =    -202.69566667 Ry
     Harris-Foulkes estimate   =    -202.72144730 Ry
     estimated scf accuracy    <       0.19253726 Ry

     iteration #  6     ecut=    50.00 Ry     beta= 0.70
     Davidson diagonalization with overlap
     ethr =  8.75E-04,  avg # of iterations =  1.0

     total cpu time spent up to now is      662.9 secs

     total energy              =    -202.69109195 Ry
     Harris-Foulkes estimate   =    -202.70048611 Ry
     estimated scf accuracy    <       0.06397510 Ry

     iteration #  7     ecut=    50.00 Ry     beta= 0.70
     Davidson diagonalization with overlap
     ethr =  2.91E-04,  avg # of iterations =  1.0

     total cpu time spent up to now is      677.1 secs

     total energy              =    -202.69181241 Ry
     Harris-Foulkes estimate   =    -202.69336240 Ry
     estimated scf accuracy    <       0.01727571 Ry

     iteration #  8     ecut=    50.00 Ry     beta= 0.70
     Davidson diagonalization with overlap
     ethr =  7.85E-05,  avg # of iterations =  1.5

     total cpu time spent up to now is      691.6 secs

     total energy              =    -202.69341630 Ry
     Harris-Foulkes estimate   =    -202.69225332 Ry
     estimated scf accuracy    <       0.01075785 Ry

     iteration #  9     ecut=    50.00 Ry     beta= 0.70
     Davidson diagonalization with overlap
     ethr =  4.89E-05,  avg # of iterations =  1.0

     total cpu time spent up to now is      705.6 secs

     total energy              =    -202.68846402 Ry
     Harris-Foulkes estimate   =    -202.69352590 Ry
     estimated scf accuracy    <       0.01629809 Ry

     iteration # 10     ecut=    50.00 Ry     beta= 0.70
     Davidson diagonalization with overlap
     ethr =  4.89E-05,  avg # of iterations =  2.1

     total cpu time spent up to now is      721.6 secs

     total energy              =    -202.68955218 Ry
     Harris-Foulkes estimate   =    -202.68964169 Ry
     estimated scf accuracy    <       0.01947895 Ry

     iteration # 11     ecut=    50.00 Ry     beta= 0.70
     Davidson diagonalization with overlap
     ethr =  4.89E-05,  avg # of iterations =  1.0

     total cpu time spent up to now is      735.5 secs

     total energy              =    -202.68960780 Ry
     Harris-Foulkes estimate   =    -202.68957699 Ry
     estimated scf accuracy    <       0.01875906 Ry

     iteration # 12     ecut=    50.00 Ry     beta= 0.70
     Davidson diagonalization with overlap
     ethr =  4.89E-05,  avg # of iterations =  1.0

     total cpu time spent up to now is      749.5 secs

     total energy              =    -202.68989489 Ry
     Harris-Foulkes estimate   =    -202.68961136 Ry
     estimated scf accuracy    <       0.01897799 Ry

     iteration # 13     ecut=    50.00 Ry     beta= 0.70
     Davidson diagonalization with overlap
     ethr =  4.89E-05,  avg # of iterations =  1.0

     total cpu time spent up to now is      763.2 secs

     total energy              =    -202.68954932 Ry
     Harris-Foulkes estimate   =    -202.68990193 Ry
     estimated scf accuracy    <       0.02048315 Ry

     iteration # 14     ecut=    50.00 Ry     beta= 0.70
     Davidson diagonalization with overlap
     ethr =  4.89E-05,  avg # of iterations =  1.0

     total cpu time spent up to now is      777.4 secs

     total energy              =    -202.68915421 Ry
     Harris-Foulkes estimate   =    -202.68955531 Ry
     estimated scf accuracy    <       0.01873479 Ry

     iteration # 15     ecut=    50.00 Ry     beta= 0.70
     Davidson diagonalization with overlap
     ethr =  4.89E-05,  avg # of iterations =  1.0

     total cpu time spent up to now is      791.4 secs

     total energy              =    -202.69145057 Ry
     Harris-Foulkes estimate   =    -202.68916593 Ry
     estimated scf accuracy    <       0.01639752 Ry

     iteration # 16     ecut=    50.00 Ry     beta= 0.70
     Davidson diagonalization with overlap
     ethr =  4.89E-05,  avg # of iterations =  1.0

     total cpu time spent up to now is      805.5 secs

     total energy              =    -202.69129337 Ry
     Harris-Foulkes estimate   =    -202.69112563 Ry
     estimated scf accuracy    <       0.00433205 Ry

     iteration # 17     ecut=    50.00 Ry     beta= 0.70
     Davidson diagonalization with overlap
     ethr =  1.97E-05,  avg # of iterations =  1.0

     total cpu time spent up to now is      819.5 secs

     total energy              =    -202.69119794 Ry
     Harris-Foulkes estimate   =    -202.69134874 Ry
     estimated scf accuracy    <       0.00712758 Ry

     iteration # 18     ecut=    50.00 Ry     beta= 0.70
     Davidson diagonalization with overlap
     ethr =  1.97E-05,  avg # of iterations =  1.0

     total cpu time spent up to now is      833.5 secs

     total energy              =    -202.68913485 Ry
     Harris-Foulkes estimate   =    -202.69120751 Ry
     estimated scf accuracy    <       0.00563424 Ry

     iteration # 19     ecut=    50.00 Ry     beta= 0.70
     Davidson diagonalization with overlap
     ethr =  1.97E-05,  avg # of iterations =  2.3

     total cpu time spent up to now is      849.6 secs

     total energy              =    -202.68742315 Ry
     Harris-Foulkes estimate   =    -202.68755525 Ry
     estimated scf accuracy    <       0.00663625 Ry

     iteration # 20     ecut=    50.00 Ry     beta= 0.70
     Davidson diagonalization with overlap
     ethr =  1.97E-05,  avg # of iterations =  1.0

     total cpu time spent up to now is      863.5 secs

     total energy              =    -202.68974113 Ry
     Harris-Foulkes estimate   =    -202.68743413 Ry
     estimated scf accuracy    <       0.00578901 Ry

     iteration # 21     ecut=    50.00 Ry     beta= 0.70
     Davidson diagonalization with overlap
     ethr =  1.97E-05,  avg # of iterations =  2.0

     total cpu time spent up to now is      879.3 secs

     total energy              =    -202.69076350 Ry
     Harris-Foulkes estimate   =    -202.69079632 Ry
     estimated scf accuracy    <       0.00135684 Ry

     iteration # 22     ecut=    50.00 Ry     beta= 0.70
     Davidson diagonalization with overlap
     ethr =  6.17E-06,  avg # of iterations =  1.1

     total cpu time spent up to now is      893.4 secs

     total energy              =    -202.69078796 Ry
     Harris-Foulkes estimate   =    -202.69077813 Ry
     estimated scf accuracy    <       0.00111171 Ry

     iteration # 23     ecut=    50.00 Ry     beta= 0.70
     Davidson diagonalization with overlap
     ethr =  5.05E-06,  avg # of iterations =  1.0

     total cpu time spent up to now is      907.2 secs

     total energy              =    -202.69092518 Ry
     Harris-Foulkes estimate   =    -202.69079053 Ry
     estimated scf accuracy    <       0.00125552 Ry

     iteration # 24     ecut=    50.00 Ry     beta= 0.70
     Davidson diagonalization with overlap
     ethr =  5.05E-06,  avg # of iterations =  1.0

     total cpu time spent up to now is      921.2 secs

     total energy              =    -202.69050486 Ry
     Harris-Foulkes estimate   =    -202.69095678 Ry
     estimated scf accuracy    <       0.00296639 Ry

     iteration # 25     ecut=    50.00 Ry     beta= 0.70
     Davidson diagonalization with overlap
     ethr =  5.05E-06,  avg # of iterations =  1.0

     total cpu time spent up to now is      935.1 secs

     total energy              =    -202.69123199 Ry
     Harris-Foulkes estimate   =    -202.68993096 Ry
     estimated scf accuracy    <       0.02146705 Ry

     iteration # 26     ecut=    50.00 Ry     beta= 0.70
     Davidson diagonalization with overlap
     ethr =  5.05E-06,  avg # of iterations =  1.0

     total cpu time spent up to now is      949.0 secs

     total energy              =    -202.69107997 Ry
     Harris-Foulkes estimate   =    -202.69095698 Ry
     estimated scf accuracy    <       0.00291265 Ry

     iteration # 27     ecut=    50.00 Ry     beta= 0.70
     Davidson diagonalization with overlap
     ethr =  5.05E-06,  avg # of iterations =  1.0

     total cpu time spent up to now is      963.3 secs

     total energy              =    -202.69082314 Ry
     Harris-Foulkes estimate   =    -202.69109633 Ry
     estimated scf accuracy    <       0.00450545 Ry

     iteration # 28     ecut=    50.00 Ry     beta= 0.70
     Davidson diagonalization with overlap
     ethr =  5.05E-06,  avg # of iterations =  1.0

     total cpu time spent up to now is      977.2 secs

     total energy              =    -202.69067724 Ry
     Harris-Foulkes estimate   =    -202.69086528 Ry
     estimated scf accuracy    <       0.00205860 Ry

     iteration # 29     ecut=    50.00 Ry     beta= 0.70
     Davidson diagonalization with overlap
     ethr =  5.05E-06,  avg # of iterations =  1.0

     total cpu time spent up to now is      991.2 secs

     total energy              =    -202.69073688 Ry
     Harris-Foulkes estimate   =    -202.69071994 Ry
     estimated scf accuracy    <       0.00054466 Ry

     iteration # 30     ecut=    50.00 Ry     beta= 0.70
     Davidson diagonalization with overlap
     ethr =  2.48E-06,  avg # of iterations =  1.0

     total cpu time spent up to now is     1005.4 secs

     total energy              =    -202.69073541 Ry
     Harris-Foulkes estimate   =    -202.69073963 Ry
     estimated scf accuracy    <       0.00073298 Ry

     iteration # 31     ecut=    50.00 Ry     beta= 0.70
     Davidson diagonalization with overlap
     ethr =  2.48E-06,  avg # of iterations =  1.0

     total cpu time spent up to now is     1019.6 secs

     total energy              =    -202.69073321 Ry
     Harris-Foulkes estimate   =    -202.69073569 Ry
     estimated scf accuracy    <       0.00067295 Ry

     iteration # 32     ecut=    50.00 Ry     beta= 0.70
     Davidson diagonalization with overlap
     ethr =  2.48E-06,  avg # of iterations =  1.0

     total cpu time spent up to now is     1033.8 secs

     total energy              =    -202.69074523 Ry
     Harris-Foulkes estimate   =    -202.69073328 Ry
     estimated scf accuracy    <       0.00065183 Ry

     iteration # 33     ecut=    50.00 Ry     beta= 0.70
     Davidson diagonalization with overlap
     ethr =  2.48E-06,  avg # of iterations =  1.0

     total cpu time spent up to now is     1048.1 secs

     total energy              =    -202.69075577 Ry
     Harris-Foulkes estimate   =    -202.69074566 Ry
     estimated scf accuracy    <       0.00076583 Ry

     iteration # 34     ecut=    50.00 Ry     beta= 0.70
     Davidson diagonalization with overlap
     ethr =  2.48E-06,  avg # of iterations =  1.0

     total cpu time spent up to now is     1062.9 secs

     total energy              =    -202.69059688 Ry
     Harris-Foulkes estimate   =    -202.69075609 Ry
     estimated scf accuracy    <       0.00087259 Ry

     iteration # 35     ecut=    50.00 Ry     beta= 0.70
     Davidson diagonalization with overlap
     ethr =  2.48E-06,  avg # of iterations =  1.0

     total cpu time spent up to now is     1077.6 secs

     total energy              =    -202.69070686 Ry
     Harris-Foulkes estimate   =    -202.68967339 Ry
     estimated scf accuracy    <       0.01987018 Ry

     iteration # 36     ecut=    50.00 Ry     beta= 0.70
     Davidson diagonalization with overlap
     ethr =  2.48E-06,  avg # of iterations =  1.0

     total cpu time spent up to now is     1091.8 secs

     total energy              =    -202.69080335 Ry
     Harris-Foulkes estimate   =    -202.69080372 Ry
     estimated scf accuracy    <       0.00130355 Ry

     iteration # 37     ecut=    50.00 Ry     beta= 0.70
     Davidson diagonalization with overlap
     ethr =  2.48E-06,  avg # of iterations =  1.0

     total cpu time spent up to now is     1105.8 secs

     total energy              =    -202.69081458 Ry
     Harris-Foulkes estimate   =    -202.69080473 Ry
     estimated scf accuracy    <       0.00132872 Ry

     iteration # 38     ecut=    50.00 Ry     beta= 0.70
     Davidson diagonalization with overlap
     ethr =  2.48E-06,  avg # of iterations =  1.0

     total cpu time spent up to now is     1120.0 secs

     total energy              =    -202.69094771 Ry
     Harris-Foulkes estimate   =    -202.69081506 Ry
     estimated scf accuracy    <       0.00146164 Ry

     iteration # 39     ecut=    50.00 Ry     beta= 0.70
     Davidson diagonalization with overlap
     ethr =  2.48E-06,  avg # of iterations =  1.0

     total cpu time spent up to now is     1134.1 secs

     total energy              =    -202.69086784 Ry
     Harris-Foulkes estimate   =    -202.69097384 Ry
     estimated scf accuracy    <       0.00311981 Ry

     iteration # 40     ecut=    50.00 Ry     beta= 0.70
     Davidson diagonalization with overlap
     ethr =  2.48E-06,  avg # of iterations =  1.0

     total cpu time spent up to now is     1148.5 secs

     total energy              =    -202.69090619 Ry
     Harris-Foulkes estimate   =    -202.69087658 Ry
     estimated scf accuracy    <       0.00212654 Ry

     iteration # 41     ecut=    50.00 Ry     beta= 0.70
     Davidson diagonalization with overlap
     ethr =  2.48E-06,  avg # of iterations =  1.0

     total cpu time spent up to now is     1162.4 secs

     total energy              =    -202.69079496 Ry
     Harris-Foulkes estimate   =    -202.69090710 Ry
     estimated scf accuracy    <       0.00243306 Ry

     iteration # 42     ecut=    50.00 Ry     beta= 0.70
     Davidson diagonalization with overlap
     ethr =  2.48E-06,  avg # of iterations =  1.0

     total cpu time spent up to now is     1176.5 secs

     total energy              =    -202.69075931 Ry
     Harris-Foulkes estimate   =    -202.69080676 Ry
     estimated scf accuracy    <       0.00141918 Ry

     iteration # 43     ecut=    50.00 Ry     beta= 0.70
     Davidson diagonalization with overlap
     ethr =  2.48E-06,  avg # of iterations =  1.0

     total cpu time spent up to now is     1190.8 secs

     total energy              =    -202.69069565 Ry
     Harris-Foulkes estimate   =    -202.69076353 Ry
     estimated scf accuracy    <       0.00094940 Ry

     iteration # 44     ecut=    50.00 Ry     beta= 0.70
     Davidson diagonalization with overlap
     ethr =  2.48E-06,  avg # of iterations =  1.0

     total cpu time spent up to now is     1205.0 secs

     total energy              =    -202.69063887 Ry
     Harris-Foulkes estimate   =    -202.69070640 Ry
     estimated scf accuracy    <       0.00039582 Ry

     iteration # 45     ecut=    50.00 Ry     beta= 0.70
     Davidson diagonalization with overlap
     ethr =  1.80E-06,  avg # of iterations =  1.0

     total cpu time spent up to now is     1218.9 secs

     total energy              =    -202.69068104 Ry
     Harris-Foulkes estimate   =    -202.68969358 Ry
     estimated scf accuracy    <       0.01982173 Ry

     iteration # 46     ecut=    50.00 Ry     beta= 0.70
     Davidson diagonalization with overlap
     ethr =  1.80E-06,  avg # of iterations =  1.5

     total cpu time spent up to now is     1233.0 secs

     total energy              =    -202.69089462 Ry
     Harris-Foulkes estimate   =    -202.69079726 Ry
     estimated scf accuracy    <       0.00125369 Ry

     iteration # 47     ecut=    50.00 Ry     beta= 0.70
     Davidson diagonalization with overlap
     ethr =  1.80E-06,  avg # of iterations =  1.0

     total cpu time spent up to now is     1247.1 secs

     total energy              =    -202.69085214 Ry
     Harris-Foulkes estimate   =    -202.69091418 Ry
     estimated scf accuracy    <       0.00252098 Ry

     iteration # 48     ecut=    50.00 Ry     beta= 0.70
     Davidson diagonalization with overlap
     ethr =  1.80E-06,  avg # of iterations =  1.0

     total cpu time spent up to now is     1261.0 secs

     total energy              =    -202.69088614 Ry
     Harris-Foulkes estimate   =    -202.69085629 Ry
     estimated scf accuracy    <       0.00190657 Ry

     iteration # 49     ecut=    50.00 Ry     beta= 0.70
     Davidson diagonalization with overlap
     ethr =  1.80E-06,  avg # of iterations =  1.0

     total cpu time spent up to now is     1274.9 secs

     total energy              =    -202.69086104 Ry
     Harris-Foulkes estimate   =    -202.69088721 Ry
     estimated scf accuracy    <       0.00222181 Ry

     iteration # 50     ecut=    50.00 Ry     beta= 0.70
     Davidson diagonalization with overlap
     ethr =  1.80E-06,  avg # of iterations =  1.0

     total cpu time spent up to now is     1289.0 secs

     total energy              =    -202.69093633 Ry
     Harris-Foulkes estimate   =    -202.69086174 Ry
     estimated scf accuracy    <       0.00196685 Ry

     iteration # 51     ecut=    50.00 Ry     beta= 0.70
     Davidson diagonalization with overlap
     ethr =  1.80E-06,  avg # of iterations =  1.0

     total cpu time spent up to now is     1302.8 secs

     total energy              =    -202.69081380 Ry
     Harris-Foulkes estimate   =    -202.69094247 Ry
     estimated scf accuracy    <       0.00279178 Ry

     iteration # 52     ecut=    50.00 Ry     beta= 0.70
     Davidson diagonalization with overlap
     ethr =  1.80E-06,  avg # of iterations =  1.0

     total cpu time spent up to now is     1316.9 secs

     total energy              =    -202.69082294 Ry
     Harris-Foulkes estimate   =    -202.69082731 Ry
     estimated scf accuracy    <       0.00163522 Ry

     iteration # 53     ecut=    50.00 Ry     beta= 0.70
     Davidson diagonalization with overlap
     ethr =  1.80E-06,  avg # of iterations =  1.0

     total cpu time spent up to now is     1331.1 secs

     total energy              =    -202.69063236 Ry
     Harris-Foulkes estimate   =    -202.69082321 Ry
     estimated scf accuracy    <       0.00157537 Ry

     iteration # 54     ecut=    50.00 Ry     beta= 0.70
     Davidson diagonalization with overlap
     ethr =  1.80E-06,  avg # of iterations =  1.0

     total cpu time spent up to now is     1345.1 secs

     total energy              =    -202.68966073 Ry
     Harris-Foulkes estimate   =    -202.69005731 Ry
     estimated scf accuracy    <       0.02203292 Ry

     iteration # 55     ecut=    50.00 Ry     beta= 0.70
     Davidson diagonalization with overlap
     ethr =  1.80E-06,  avg # of iterations =  1.1

     total cpu time spent up to now is     1359.1 secs

     total energy              =    -202.69057398 Ry
     Harris-Foulkes estimate   =    -202.68967188 Ry
     estimated scf accuracy    <       0.01966610 Ry

     iteration # 56     ecut=    50.00 Ry     beta= 0.70
     Davidson diagonalization with overlap
     ethr =  1.80E-06,  avg # of iterations =  1.2

     total cpu time spent up to now is     1373.4 secs

     total energy              =    -202.69077678 Ry
     Harris-Foulkes estimate   =    -202.69077237 Ry
     estimated scf accuracy    <       0.00100896 Ry

     iteration # 57     ecut=    50.00 Ry     beta= 0.70
     Davidson diagonalization with overlap
     ethr =  1.80E-06,  avg # of iterations =  1.0

     total cpu time spent up to now is     1387.5 secs

     total energy              =    -202.69076712 Ry
     Harris-Foulkes estimate   =    -202.69077841 Ry
     estimated scf accuracy    <       0.00106208 Ry

     iteration # 58     ecut=    50.00 Ry     beta= 0.70
     Davidson diagonalization with overlap
     ethr =  1.80E-06,  avg # of iterations =  1.0

     total cpu time spent up to now is     1401.7 secs

     total energy              =    -202.69083137 Ry
     Harris-Foulkes estimate   =    -202.69076751 Ry
     estimated scf accuracy    <       0.00098515 Ry

     iteration # 59     ecut=    50.00 Ry     beta= 0.70
     Davidson diagonalization with overlap
     ethr =  1.80E-06,  avg # of iterations =  1.0

     total cpu time spent up to now is     1415.7 secs

     total energy              =    -202.69084315 Ry
     Harris-Foulkes estimate   =    -202.69084013 Ry
     estimated scf accuracy    <       0.00171722 Ry

     iteration # 60     ecut=    50.00 Ry     beta= 0.70
     Davidson diagonalization with overlap
     ethr =  1.80E-06,  avg # of iterations =  1.0

     total cpu time spent up to now is     1429.6 secs

     total energy              =    -202.69088073 Ry
     Harris-Foulkes estimate   =    -202.69084344 Ry
     estimated scf accuracy    <       0.00174213 Ry

     iteration # 61     ecut=    50.00 Ry     beta= 0.70
     Davidson diagonalization with overlap
     ethr =  1.80E-06,  avg # of iterations =  1.0

     total cpu time spent up to now is     1443.6 secs

     total energy              =    -202.69087412 Ry
     Harris-Foulkes estimate   =    -202.69088276 Ry
     estimated scf accuracy    <       0.00216519 Ry

     iteration # 62     ecut=    50.00 Ry     beta= 0.70
     Davidson diagonalization with overlap
     ethr =  1.80E-06,  avg # of iterations =  1.0

     total cpu time spent up to now is     1457.5 secs

     total energy              =    -202.69085112 Ry
     Harris-Foulkes estimate   =    -202.69087429 Ry
     estimated scf accuracy    <       0.00207853 Ry

     iteration # 63     ecut=    50.00 Ry     beta= 0.70
     Davidson diagonalization with overlap
     ethr =  1.80E-06,  avg # of iterations =  1.0

     total cpu time spent up to now is     1471.4 secs

     total energy              =    -202.69084296 Ry
     Harris-Foulkes estimate   =    -202.69085167 Ry
     estimated scf accuracy    <       0.00185887 Ry

     iteration # 64     ecut=    50.00 Ry     beta= 0.70
     Davidson diagonalization with overlap
     ethr =  1.80E-06,  avg # of iterations =  1.0

     total cpu time spent up to now is     1485.6 secs

     total energy              =    -202.69052593 Ry
     Harris-Foulkes estimate   =    -202.69084307 Ry
     estimated scf accuracy    <       0.00176683 Ry

     iteration # 65     ecut=    50.00 Ry     beta= 0.70
     Davidson diagonalization with overlap
     ethr =  1.80E-06,  avg # of iterations =  2.0

     total cpu time spent up to now is     1500.6 secs

     total energy              =    -202.69046296 Ry
     Harris-Foulkes estimate   =    -202.68969221 Ry
     estimated scf accuracy    <       0.01992607 Ry

     iteration # 66     ecut=    50.00 Ry     beta= 0.70
     Davidson diagonalization with overlap
     ethr =  1.80E-06,  avg # of iterations =  1.0

     total cpu time spent up to now is     1514.8 secs

     total energy              =    -202.69075573 Ry
     Harris-Foulkes estimate   =    -202.69074896 Ry
     estimated scf accuracy    <       0.00078164 Ry

     iteration # 67     ecut=    50.00 Ry     beta= 0.70
     Davidson diagonalization with overlap
     ethr =  1.80E-06,  avg # of iterations =  1.0

     total cpu time spent up to now is     1528.8 secs

     total energy              =    -202.69078226 Ry
     Harris-Foulkes estimate   =    -202.69075682 Ry
     estimated scf accuracy    <       0.00085849 Ry

     iteration # 68     ecut=    50.00 Ry     beta= 0.70
     Davidson diagonalization with overlap
     ethr =  1.80E-06,  avg # of iterations =  1.0

     total cpu time spent up to now is     1542.8 secs

     total energy              =    -202.69094599 Ry
     Harris-Foulkes estimate   =    -202.69078428 Ry
     estimated scf accuracy    <       0.00114372 Ry

     iteration # 69     ecut=    50.00 Ry     beta= 0.70
     Davidson diagonalization with overlap
     ethr =  1.80E-06,  avg # of iterations =  1.0

     total cpu time spent up to now is     1556.7 secs

     total energy              =    -202.69092649 Ry
     Harris-Foulkes estimate   =    -202.69099404 Ry
     estimated scf accuracy    <       0.00333327 Ry

     iteration # 70     ecut=    50.00 Ry     beta= 0.70
     Davidson diagonalization with overlap
     ethr =  1.80E-06,  avg # of iterations =  1.0

     total cpu time spent up to now is     1570.7 secs

     total energy              =    -202.69095388 Ry
     Harris-Foulkes estimate   =    -202.69093068 Ry
     estimated scf accuracy    <       0.00266148 Ry

     iteration # 71     ecut=    50.00 Ry     beta= 0.70
     Davidson diagonalization with overlap
     ethr =  1.80E-06,  avg # of iterations =  1.0

     total cpu time spent up to now is     1584.5 secs

     total energy              =    -202.69095004 Ry
     Harris-Foulkes estimate   =    -202.69095455 Ry
     estimated scf accuracy    <       0.00293831 Ry

     iteration # 72     ecut=    50.00 Ry     beta= 0.70
     Davidson diagonalization with overlap
     ethr =  1.80E-06,  avg # of iterations =  1.0

     total cpu time spent up to now is     1598.6 secs

     total energy              =    -202.69094311 Ry
     Harris-Foulkes estimate   =    -202.69095011 Ry
     estimated scf accuracy    <       0.00288553 Ry

     iteration # 73     ecut=    50.00 Ry     beta= 0.70
     Davidson diagonalization with overlap
     ethr =  1.80E-06,  avg # of iterations =  1.0

     total cpu time spent up to now is     1612.7 secs

     total energy              =    -202.69089370 Ry
     Harris-Foulkes estimate   =    -202.69094316 Ry
     estimated scf accuracy    <       0.00282165 Ry

     iteration # 74     ecut=    50.00 Ry     beta= 0.70
     Davidson diagonalization with overlap
     ethr =  1.80E-06,  avg # of iterations =  1.0

     total cpu time spent up to now is     1626.9 secs

     total energy              =    -202.69048406 Ry
     Harris-Foulkes estimate   =    -202.69089568 Ry
     estimated scf accuracy    <       0.00233222 Ry

     iteration # 75     ecut=    50.00 Ry     beta= 0.70
     Davidson diagonalization with overlap
     ethr =  1.80E-06,  avg # of iterations =  2.1

     total cpu time spent up to now is     1642.7 secs

     total energy              =    -202.69097677 Ry
     Harris-Foulkes estimate   =    -202.68971165 Ry
     estimated scf accuracy    <       0.01993716 Ry

     iteration # 76     ecut=    50.00 Ry     beta= 0.70
     Davidson diagonalization with overlap
     ethr =  1.80E-06,  avg # of iterations =  2.0

     total cpu time spent up to now is     1658.4 secs

     total energy              =    -202.69097602 Ry
     Harris-Foulkes estimate   =    -202.69088169 Ry
     estimated scf accuracy    <       0.00215693 Ry

     iteration # 77     ecut=    50.00 Ry     beta= 0.70
     Davidson diagonalization with overlap
     ethr =  1.80E-06,  avg # of iterations =  1.0

     total cpu time spent up to now is     1672.6 secs

     total energy              =    -202.69122267 Ry
     Harris-Foulkes estimate   =    -202.69098604 Ry
     estimated scf accuracy    <       0.00324617 Ry

     iteration # 78     ecut=    50.00 Ry     beta= 0.70
     Davidson diagonalization with overlap
     ethr =  1.80E-06,  avg # of iterations =  1.0

     total cpu time spent up to now is     1686.5 secs

     total energy              =    -202.69146432 Ry
     Harris-Foulkes estimate   =    -202.69126250 Ry
     estimated scf accuracy    <       0.00623827 Ry

     iteration # 79     ecut=    50.00 Ry     beta= 0.70
     Davidson diagonalization with overlap
     ethr =  1.80E-06,  avg # of iterations =  1.0

     total cpu time spent up to now is     1700.3 secs

     total energy              =    -202.69140922 Ry
     Harris-Foulkes estimate   =    -202.69148154 Ry
     estimated scf accuracy    <       0.00867986 Ry

     iteration # 80     ecut=    50.00 Ry     beta= 0.70
     Davidson diagonalization with overlap
     ethr =  1.80E-06,  avg # of iterations =  1.0

     total cpu time spent up to now is     1714.2 secs

     total energy              =    -202.69092295 Ry
     Harris-Foulkes estimate   =    -202.69141112 Ry
     estimated scf accuracy    <       0.00790636 Ry

     iteration # 81     ecut=    50.00 Ry     beta= 0.70
     Davidson diagonalization with overlap
     ethr =  1.80E-06,  avg # of iterations =  1.0

     total cpu time spent up to now is     1728.1 secs

     total energy              =    -202.69092468 Ry
     Harris-Foulkes estimate   =    -202.69099655 Ry
     estimated scf accuracy    <       0.00350279 Ry

     iteration # 82     ecut=    50.00 Ry     beta= 0.70
     Davidson diagonalization with overlap
     ethr =  1.80E-06,  avg # of iterations =  1.0

     total cpu time spent up to now is     1742.3 secs

     total energy              =    -202.69092419 Ry
     Harris-Foulkes estimate   =    -202.69093081 Ry
     estimated scf accuracy    <       0.00274529 Ry

     iteration # 83     ecut=    50.00 Ry     beta= 0.70
     Davidson diagonalization with overlap
     ethr =  1.80E-06,  avg # of iterations =  1.0

     total cpu time spent up to now is     1756.2 secs

     total energy              =    -202.69092503 Ry
     Harris-Foulkes estimate   =    -202.69092456 Ry
     estimated scf accuracy    <       0.00264567 Ry

     iteration # 84     ecut=    50.00 Ry     beta= 0.70
     Davidson diagonalization with overlap
     ethr =  1.80E-06,  avg # of iterations =  1.0

     total cpu time spent up to now is     1770.1 secs

     total energy              =    -202.69047040 Ry
     Harris-Foulkes estimate   =    -202.69092513 Ry
     estimated scf accuracy    <       0.00264499 Ry

     iteration # 85     ecut=    50.00 Ry     beta= 0.70
     Davidson diagonalization with overlap
     ethr =  1.80E-06,  avg # of iterations =  2.1

     total cpu time spent up to now is     1785.9 secs

     total energy              =    -202.69161179 Ry
     Harris-Foulkes estimate   =    -202.68975068 Ry
     estimated scf accuracy    <       0.02015873 Ry

     iteration # 86     ecut=    50.00 Ry     beta= 0.70
     Davidson diagonalization with overlap
     ethr =  1.80E-06,  avg # of iterations =  2.4

     total cpu time spent up to now is     1802.2 secs

     total energy              =    -202.69115130 Ry
     Harris-Foulkes estimate   =    -202.69112764 Ry
     estimated scf accuracy    <       0.00479781 Ry

     iteration # 87     ecut=    50.00 Ry     beta= 0.70
     Davidson diagonalization with overlap
     ethr =  1.80E-06,  avg # of iterations =  1.0

     total cpu time spent up to now is     1816.2 secs

     total energy              =    -202.69046376 Ry
     Harris-Foulkes estimate   =    -202.69115198 Ry
     estimated scf accuracy    <       0.00506740 Ry

     iteration # 88     ecut=    50.00 Ry     beta= 0.70
     Davidson diagonalization with overlap
     ethr =  1.80E-06,  avg # of iterations =  2.1

     total cpu time spent up to now is     1832.4 secs

     total energy              =    -202.69040809 Ry
     Harris-Foulkes estimate   =    -202.69018362 Ry
     estimated scf accuracy    <       0.02248176 Ry

     iteration # 89     ecut=    50.00 Ry     beta= 0.70
     Davidson diagonalization with overlap
     ethr =  1.80E-06,  avg # of iterations =  1.0

     total cpu time spent up to now is     1846.4 secs

     total energy              =    -202.69090860 Ry
     Harris-Foulkes estimate   =    -202.69073539 Ry
     estimated scf accuracy    <       0.00066355 Ry

     iteration # 90     ecut=    50.00 Ry     beta= 0.70
     Davidson diagonalization with overlap
     ethr =  1.80E-06,  avg # of iterations =  1.2

     total cpu time spent up to now is     1860.4 secs

     total energy              =    -202.69089723 Ry
     Harris-Foulkes estimate   =    -202.69099465 Ry
     estimated scf accuracy    <       0.00332551 Ry

     iteration # 91     ecut=    50.00 Ry     beta= 0.70
     Davidson diagonalization with overlap
     ethr =  1.80E-06,  avg # of iterations =  1.0

     total cpu time spent up to now is     1874.4 secs

     total energy              =    -202.69080860 Ry
     Harris-Foulkes estimate   =    -202.69090528 Ry
     estimated scf accuracy    <       0.00238940 Ry

     iteration # 92     ecut=    50.00 Ry     beta= 0.70
     Davidson diagonalization with overlap
     ethr =  1.80E-06,  avg # of iterations =  1.0

     total cpu time spent up to now is     1888.2 secs

     total energy              =    -202.69061961 Ry
     Harris-Foulkes estimate   =    -202.69081734 Ry
     estimated scf accuracy    <       0.00151375 Ry

     iteration # 93     ecut=    50.00 Ry     beta= 0.70
     Davidson diagonalization with overlap
     ethr =  1.80E-06,  avg # of iterations =  1.0

     total cpu time spent up to now is     1902.1 secs

     total energy              =    -202.68995889 Ry
     Harris-Foulkes estimate   =    -202.68999153 Ry
     estimated scf accuracy    <       0.02162605 Ry

     iteration # 94     ecut=    50.00 Ry     beta= 0.70
     Davidson diagonalization with overlap
     ethr =  1.80E-06,  avg # of iterations =  1.0

     total cpu time spent up to now is     1916.0 secs

     total energy              =    -202.69029731 Ry
     Harris-Foulkes estimate   =    -202.68996059 Ry
     estimated scf accuracy    <       0.02151688 Ry

     iteration # 95     ecut=    50.00 Ry     beta= 0.70
     Davidson diagonalization with overlap
     ethr =  1.80E-06,  avg # of iterations =  1.0

     total cpu time spent up to now is     1930.0 secs

     total energy              =    -202.69077556 Ry
     Harris-Foulkes estimate   =    -202.69071827 Ry
     estimated scf accuracy    <       0.00049400 Ry

     iteration # 96     ecut=    50.00 Ry     beta= 0.70
     Davidson diagonalization with overlap
     ethr =  1.80E-06,  avg # of iterations =  1.0

     total cpu time spent up to now is     1943.9 secs

     total energy              =    -202.69072704 Ry
     Harris-Foulkes estimate   =    -202.69078882 Ry
     estimated scf accuracy    <       0.00119274 Ry

     iteration # 97     ecut=    50.00 Ry     beta= 0.70
     Davidson diagonalization with overlap
     ethr =  1.80E-06,  avg # of iterations =  1.0

     total cpu time spent up to now is     1957.7 secs

     total energy              =    -202.69081609 Ry
     Harris-Foulkes estimate   =    -202.69073431 Ry
     estimated scf accuracy    <       0.00066387 Ry

     iteration # 98     ecut=    50.00 Ry     beta= 0.70
     Davidson diagonalization with overlap
     ethr =  1.80E-06,  avg # of iterations =  1.0

     total cpu time spent up to now is     1971.6 secs

     total energy              =    -202.69075925 Ry
     Harris-Foulkes estimate   =    -202.69083579 Ry
     estimated scf accuracy    <       0.00166018 Ry

     iteration # 99     ecut=    50.00 Ry     beta= 0.70
     Davidson diagonalization with overlap
     ethr =  1.80E-06,  avg # of iterations =  1.0

     total cpu time spent up to now is     1985.4 secs

     total energy              =    -202.69082058 Ry
     Harris-Foulkes estimate   =    -202.69076716 Ry
     estimated scf accuracy    <       0.00099397 Ry

     iteration #100     ecut=    50.00 Ry     beta= 0.70
     Davidson diagonalization with overlap
     ethr =  1.80E-06,  avg # of iterations =  1.0

     total cpu time spent up to now is     1999.3 secs

     total energy              =    -202.69084573 Ry
     Harris-Foulkes estimate   =    -202.69082643 Ry
     estimated scf accuracy    <       0.00157421 Ry

     End of self-consistent calculation

     convergence NOT achieved after 100 iterations: stopping

     Writing output data file CuAu_L10.save/

     init_run     :     14.04s CPU     17.34s WALL (       1 calls)
     electrons    :    757.34s CPU   1907.20s WALL (       3 calls)
     update_pot   :     21.13s CPU     21.15s WALL (       2 calls)
     forces       :     14.36s CPU     16.21s WALL (       2 calls)
     stress       :     33.55s CPU     35.57s WALL (       2 calls)

     Called by init_run:
     wfcinit      :      3.10s CPU      6.24s WALL (       1 calls)
     potinit      :      2.55s CPU      2.56s WALL (       1 calls)
     hinit0       :      8.13s CPU      8.13s WALL (       1 calls)

     Called by electrons:
     c_bands      :    612.68s CPU   1527.97s WALL (     126 calls)
     sum_band     :    102.99s CPU    321.61s WALL (     126 calls)
     v_of_rho     :      9.57s CPU     11.10s WALL (     128 calls)
     newd         :     31.30s CPU     45.43s WALL (     128 calls)
     mix_rho      :      1.29s CPU      1.63s WALL (     126 calls)

     Called by c_bands:
     init_us_2    :     26.96s CPU     52.89s WALL (   50372 calls)
     cegterg      :    501.51s CPU   1383.86s WALL (   24696 calls)

     Called by sum_band:
     sum_band:bec :      0.28s CPU      0.67s WALL (   24696 calls)
     addusdens    :     37.94s CPU     52.04s WALL (     126 calls)

     Called by *egterg:
     h_psi        :    242.84s CPU   1000.49s WALL (   60012 calls)
     s_psi        :     64.93s CPU     98.47s WALL (   60012 calls)
     g_psi        :      9.23s CPU     16.24s WALL (   35120 calls)
     cdiaghg      :     10.99s CPU     19.91s WALL (   59228 calls)

     Called by h_psi:
     h_psi:pot    :    240.06s CPU    995.28s WALL (   60012 calls)
     h_psi:calbec :     50.77s CPU    108.12s WALL (   60012 calls)
     vloc_psi     :    118.21s CPU    783.49s WALL (   60012 calls)
     add_vuspsi   :     70.03s CPU    101.88s WALL (   60012 calls)

     General routines
     calbec       :     71.89s CPU    158.67s WALL (   86668 calls)
     fft          :      3.76s CPU      5.10s WALL (    1713 calls)
     ffts         :      0.08s CPU      0.15s WALL (     254 calls)
     fftw         :    127.20s CPU    836.56s WALL ( 1985286 calls)
     interpolate  :      0.34s CPU      0.54s WALL (     128 calls)
     davcio       :      0.00s CPU      0.04s WALL (     214 calls)

     Parallel routines

     PWSCF        :  14m 2.06s CPU  33m19.43s WALL


   This run was terminated on:  23: 9:27  16May2020            

=------------------------------------------------------------------------------=
   JOB DONE.
=------------------------------------------------------------------------------=
