
     Program PWSCF v.6.4.1 starts on 15May2020 at 18:55:25 

     This program is part of the open-source Quantum ESPRESSO suite
     for quantum simulation of materials; please cite
         "P. Giannozzi et al., J. Phys.:Condens. Matter 21 395502 (2009);
         "P. Giannozzi et al., J. Phys.:Condens. Matter 29 465901 (2017);
          URL http://www.quantum-espresso.org", 
     in publications or presentations arising from this work. More details at
     http://www.quantum-espresso.org/quote

     Parallel version (MPI & OpenMP), running on       1 processor cores
     Number of MPI processes:                 1
     Threads/MPI process:                     1

     MPI processes distributed on     1 nodes
     Reading input from cuau_7.48_0.927_12.pw.in

     Current dimensions of program PWSCF are:
     Max number of different atomic species (ntypx) = 10
     Max number of k-points (npk) =  40000
     Max angular momentum in pseudopotentials (lmaxx) =  3
     Message from routine read_upf::
     Pseudo file Au.pbe-dn-rrkjus_psl.0.1.UPF has been fixed on the fly.
To avoid this message in the future, permanently fix 
 your pseudo files following these instructions: 
https://gitlab.com/QEF/q-e/blob/master/upftools/how_to_fix_upf.md
     Message from routine read_upf::
     Pseudo file Cu.pbe-dn-rrkjus_psl.0.2.UPF has been fixed on the fly.
To avoid this message in the future, permanently fix 
 your pseudo files following these instructions: 
https://gitlab.com/QEF/q-e/blob/master/upftools/how_to_fix_upf.md
               file Au.pbe-dn-rrkjus_psl.0.1.UPF: wavefunction(s)  5D renormalized
               file Cu.pbe-dn-rrkjus_psl.0.2.UPF: wavefunction(s)  3D renormalized

     Subspace diagonalization in iterative solution of the eigenvalue problem:
     a serial algorithm will be used

 
     G-vector sticks info
     --------------------
     sticks:   dense  smooth     PW     G-vecs:    dense   smooth      PW
     Sum        1519     607    219                36669     9259    2033
 


     bravais-lattice index     =            7
     lattice parameter (alat)  =       7.4800  a.u.
     unit-cell volume          =     193.9789 (a.u.)^3
     number of atoms/cell      =            2
     number of atomic types    =            2
     number of electrons       =        22.00
     number of Kohn-Sham states=           15
     kinetic-energy cutoff     =      50.0000  Ry
     charge density cutoff     =     500.0000  Ry
     convergence threshold     =      1.0E-08
     mixing beta               =       0.7000
     number of iterations used =            8  plain     mixing
     Exchange-correlation      = PBE ( 1  4  3  4 0 0)
     nstep                     =           50


     celldm(1)=   7.480000  celldm(2)=   0.000000  celldm(3)=   0.927000
     celldm(4)=   0.000000  celldm(5)=   0.000000  celldm(6)=   0.000000

     crystal axes: (cart. coord. in units of alat)
               a(1) = (   0.500000  -0.500000   0.463500 )  
               a(2) = (   0.500000   0.500000   0.463500 )  
               a(3) = (  -0.500000  -0.500000   0.463500 )  

     reciprocal axes: (cart. coord. in units 2 pi/alat)
               b(1) = (  1.000000 -1.000000  0.000000 )  
               b(2) = (  0.000000  1.000000  1.078749 )  
               b(3) = ( -1.000000  0.000000  1.078749 )  


     PseudoPot. # 1 for Au read from file:
     ./Au.pbe-dn-rrkjus_psl.0.1.UPF
     MD5 check sum: 2577dac56bcf5cc3f91526b665170132
     Pseudo is Ultrasoft + core correction, Zval = 11.0
     Generated using "atomic" code by A. Dal Corso v.5.0.2 svn rev. 9415
     Using radial grid of 1279 points,  6 beta functions with: 
                l(1) =   0
                l(2) =   0
                l(3) =   1
                l(4) =   1
                l(5) =   2
                l(6) =   2
     Q(r) pseudized with 0 coefficients 


     PseudoPot. # 2 for Cu read from file:
     ./Cu.pbe-dn-rrkjus_psl.0.2.UPF
     MD5 check sum: 1265fa589247fc99ea3a830f142ff47f
     Pseudo is Ultrasoft + core correction, Zval = 11.0
     Generated using "atomic" code by A. Dal Corso v.5.0.2 svn rev. 9415
     Using radial grid of 1199 points,  6 beta functions with: 
                l(1) =   0
                l(2) =   0
                l(3) =   1
                l(4) =   1
                l(5) =   2
                l(6) =   2
     Q(r) pseudized with 0 coefficients 


     atomic species   valence    mass     pseudopotential
        Au            11.00   196.97000     Au( 1.00)
        Cu            11.00    63.54600     Cu( 1.00)

      4 Sym. Ops., with inversion, found



   Cartesian axes

     site n.     atom                  positions (alat units)
         1           Au  tau(   1) = (   0.0000000   0.0000000   0.0000000  )
         2           Cu  tau(   2) = (   0.2500000  -0.2500000   0.6952500  )

     number of k points=   476  Marzari-Vanderbilt smearing, width (Ry)=  0.0250

     Number of k-points >= 100: set verbosity='high' to print them.

     Dense  grid:    36669 G-vectors     FFT dimensions: (  45,  45,  45)

     Smooth grid:     9259 G-vectors     FFT dimensions: (  30,  30,  30)

     Estimated max dynamical RAM per process >     270.48 MB

     Check: negative core charge=   -0.000009

     Initial potential from superposition of free atoms

     starting charge   21.99966, renormalised to   22.00000
     Starting wfcs are   18 randomized atomic wfcs

     total cpu time spent up to now is       11.6 secs

     Self-consistent Calculation

     iteration #  1     ecut=    50.00 Ry     beta= 0.70
     Davidson diagonalization with overlap
     ethr =  1.00E-02,  avg # of iterations =  4.1

     Threshold (ethr) on eigenvalues was too large:
     Diagonalizing with lowered threshold

     Davidson diagonalization with overlap
     ethr =  3.14E-04,  avg # of iterations =  2.3

     total cpu time spent up to now is       45.6 secs

     total energy              =    -201.29958648 Ry
     Harris-Foulkes estimate   =    -201.35517834 Ry
     estimated scf accuracy    <       0.07199865 Ry

     iteration #  2     ecut=    50.00 Ry     beta= 0.70
     Davidson diagonalization with overlap
     ethr =  3.27E-04,  avg # of iterations =  2.3

     total cpu time spent up to now is       64.0 secs

     total energy              =    -201.30423173 Ry
     Harris-Foulkes estimate   =    -201.35629408 Ry
     estimated scf accuracy    <       0.10351119 Ry

     iteration #  3     ecut=    50.00 Ry     beta= 0.70
     Davidson diagonalization with overlap
     ethr =  3.27E-04,  avg # of iterations =  2.0

     total cpu time spent up to now is       80.8 secs

     total energy              =    -201.32682044 Ry
     Harris-Foulkes estimate   =    -201.33645568 Ry
     estimated scf accuracy    <       0.02541651 Ry

     iteration #  4     ecut=    50.00 Ry     beta= 0.70
     Davidson diagonalization with overlap
     ethr =  1.16E-04,  avg # of iterations =  1.8

     total cpu time spent up to now is       95.3 secs

     total energy              =    -201.33122982 Ry
     Harris-Foulkes estimate   =    -201.33131163 Ry
     estimated scf accuracy    <       0.00026041 Ry

     iteration #  5     ecut=    50.00 Ry     beta= 0.70
     Davidson diagonalization with overlap
     ethr =  1.18E-06,  avg # of iterations =  3.4

     total cpu time spent up to now is      115.1 secs

     total energy              =    -201.33136123 Ry
     Harris-Foulkes estimate   =    -201.33136825 Ry
     estimated scf accuracy    <       0.00002434 Ry

     iteration #  6     ecut=    50.00 Ry     beta= 0.70
     Davidson diagonalization with overlap
     ethr =  1.11E-07,  avg # of iterations =  1.3

     total cpu time spent up to now is      129.2 secs

     total energy              =    -201.33136468 Ry
     Harris-Foulkes estimate   =    -201.33136463 Ry
     estimated scf accuracy    <       0.00000007 Ry

     iteration #  7     ecut=    50.00 Ry     beta= 0.70
     Davidson diagonalization with overlap
     ethr =  3.33E-10,  avg # of iterations =  3.1

     total cpu time spent up to now is      150.7 secs

     total energy              =    -201.33136481 Ry
     Harris-Foulkes estimate   =    -201.33136482 Ry
     estimated scf accuracy    <       0.00000002 Ry

     iteration #  8     ecut=    50.00 Ry     beta= 0.70
     Davidson diagonalization with overlap
     ethr =  8.59E-11,  avg # of iterations =  1.0

     total cpu time spent up to now is      164.6 secs

     End of self-consistent calculation

     Number of k-points >= 100: set verbosity='high' to print the bands.

     the Fermi energy is    15.5354 ev

!    total energy              =    -201.33136481 Ry
     Harris-Foulkes estimate   =    -201.33136481 Ry
     estimated scf accuracy    <          2.1E-10 Ry

     The total energy is the sum of the following terms:

     one-electron contribution =     -45.90636840 Ry
     hartree contribution      =      52.19615236 Ry
     xc contribution           =     -73.50008555 Ry
     ewald contribution        =    -134.12124796 Ry
     smearing contrib. (-TS)   =       0.00018474 Ry

     convergence has been achieved in   8 iterations

     Forces acting on atoms (cartesian axes, Ry/au):

     atom    1 type  1   force =     0.00000000    0.00000000    0.00000000
     atom    2 type  2   force =     0.00000000    0.00000000    0.00000000

     Total force =     0.000000     Total SCF correction =     0.000000


     Computing stress (Cartesian axis) and pressure

          total   stress  (Ry/bohr**3)                   (kbar)     P= 2606.52
   0.01852418  -0.01787771  -0.01654087       2725.00  -2629.90  -2433.25
  -0.01787771   0.01852418   0.01654087      -2629.90   2725.00   2433.25
  -0.01654087   0.01654087   0.01610794      -2433.25   2433.25   2369.56


     BFGS Geometry Optimization

     number of scf cycles    =   1
     number of bfgs steps    =   0

     enthalpy new            =    -201.3313648112 Ry

     new trust radius        =       0.5000000000 bohr
     new conv_thr            =       0.0000000100 Ry

     new unit-cell volume =    254.95333 a.u.^3 (    37.78018 Ang^3 )
     density =     11.45037 g/cm^3

CELL_PARAMETERS (alat=  7.48000000)
   0.561793894  -0.561793894   0.410267033
   0.456923305   0.546868870   0.507295690
  -0.546868870  -0.456923305   0.507295690

ATOMIC_POSITIONS (crystal)
Au       0.000000000   0.000000000   0.000000000
Cu       0.500000000   0.500000000   0.500000000



     Writing output data file CuAu_L10.save/
     NEW-OLD atomic charge density approx. for the potential

     Check: negative core charge=   -0.000011
     extrapolated charge   27.26142, renormalised to   22.00000

     total cpu time spent up to now is      178.2 secs

     Self-consistent Calculation

     iteration #  1     ecut=    50.00 Ry     beta= 0.70
     Davidson diagonalization with overlap
     c_bands:  1 eigenvalues not converged
     c_bands:  1 eigenvalues not converged
     c_bands:  1 eigenvalues not converged
     c_bands:  1 eigenvalues not converged
     c_bands:  1 eigenvalues not converged
     c_bands:  1 eigenvalues not converged
     c_bands:  1 eigenvalues not converged
     c_bands:  1 eigenvalues not converged
     c_bands:  1 eigenvalues not converged
     c_bands:  1 eigenvalues not converged
     c_bands:  1 eigenvalues not converged
     c_bands:  1 eigenvalues not converged
     c_bands:  1 eigenvalues not converged
     c_bands:  1 eigenvalues not converged
     c_bands:  1 eigenvalues not converged
     c_bands:  1 eigenvalues not converged
     c_bands:  1 eigenvalues not converged
     c_bands:  1 eigenvalues not converged
     c_bands:  1 eigenvalues not converged
     c_bands:  1 eigenvalues not converged
     c_bands:  1 eigenvalues not converged
     c_bands:  1 eigenvalues not converged
     c_bands:  1 eigenvalues not converged
     c_bands:  1 eigenvalues not converged
     c_bands:  1 eigenvalues not converged
     c_bands:  1 eigenvalues not converged
     c_bands:  1 eigenvalues not converged
     ethr =  1.00E-06,  avg # of iterations = 13.8

     total cpu time spent up to now is      227.2 secs

     total energy              =    -155.74459752 Ry
     Harris-Foulkes estimate   =    -199.06627965 Ry
     estimated scf accuracy    <      46.32221464 Ry

     iteration #  2     ecut=    50.00 Ry     beta= 0.70
     Davidson diagonalization with overlap
     ethr =  1.00E-02,  avg # of iterations =  4.0

     total cpu time spent up to now is      253.1 secs

     total energy              =    -203.73576082 Ry
     Harris-Foulkes estimate   =    -248.86853343 Ry
     estimated scf accuracy    <      98.21497464 Ry

     iteration #  3     ecut=    50.00 Ry     beta= 0.70
     Davidson diagonalization with overlap
     ethr =  1.00E-02,  avg # of iterations =  3.3

     total cpu time spent up to now is      275.4 secs

     total energy              =    -208.86825542 Ry
     Harris-Foulkes estimate   =    -214.53165727 Ry
     estimated scf accuracy    <      21.78521409 Ry

     iteration #  4     ecut=    50.00 Ry     beta= 0.70
     Davidson diagonalization with overlap
     ethr =  1.00E-02,  avg # of iterations =  2.0

     total cpu time spent up to now is      291.5 secs

     total energy              =    -206.59949590 Ry
     Harris-Foulkes estimate   =    -209.29609208 Ry
     estimated scf accuracy    <      13.22311721 Ry

     iteration #  5     ecut=    50.00 Ry     beta= 0.70
     Davidson diagonalization with overlap
     ethr =  1.00E-02,  avg # of iterations =  1.0

     total cpu time spent up to now is      305.4 secs

     total energy              =    -202.42037807 Ry
     Harris-Foulkes estimate   =    -206.70252845 Ry
     estimated scf accuracy    <       8.89555795 Ry

     iteration #  6     ecut=    50.00 Ry     beta= 0.70
     Davidson diagonalization with overlap
     ethr =  1.00E-02,  avg # of iterations =  2.1

     total cpu time spent up to now is      321.9 secs

     total energy              =    -203.39021268 Ry
     Harris-Foulkes estimate   =    -203.10152205 Ry
     estimated scf accuracy    <       1.44237047 Ry

     iteration #  7     ecut=    50.00 Ry     beta= 0.70
     Davidson diagonalization with overlap
     ethr =  6.56E-03,  avg # of iterations =  1.0

     total cpu time spent up to now is      335.8 secs

     total energy              =    -202.59355236 Ry
     Harris-Foulkes estimate   =    -203.41592668 Ry
     estimated scf accuracy    <       2.20721207 Ry

     iteration #  8     ecut=    50.00 Ry     beta= 0.70
     Davidson diagonalization with overlap
     ethr =  6.56E-03,  avg # of iterations =  2.0

     total cpu time spent up to now is      350.6 secs

     total energy              =    -202.60004681 Ry
     Harris-Foulkes estimate   =    -202.72428862 Ry
     estimated scf accuracy    <       0.46073928 Ry

     iteration #  9     ecut=    50.00 Ry     beta= 0.70
     Davidson diagonalization with overlap
     ethr =  2.09E-03,  avg # of iterations =  1.8

     total cpu time spent up to now is      365.0 secs

     total energy              =    -202.61460292 Ry
     Harris-Foulkes estimate   =    -202.63646104 Ry
     estimated scf accuracy    <       0.07770567 Ry

     iteration # 10     ecut=    50.00 Ry     beta= 0.70
     Davidson diagonalization with overlap
     ethr =  3.53E-04,  avg # of iterations =  2.7

     total cpu time spent up to now is      381.2 secs

     total energy              =    -202.62108383 Ry
     Harris-Foulkes estimate   =    -202.62398893 Ry
     estimated scf accuracy    <       0.01126989 Ry

     iteration # 11     ecut=    50.00 Ry     beta= 0.70
     Davidson diagonalization with overlap
     ethr =  5.12E-05,  avg # of iterations =  3.3

     total cpu time spent up to now is      404.0 secs

     total energy              =    -202.73170071 Ry
     Harris-Foulkes estimate   =    -202.67261918 Ry
     estimated scf accuracy    <       0.43151688 Ry

     iteration # 12     ecut=    50.00 Ry     beta= 0.70
     Davidson diagonalization with overlap
     ethr =  5.12E-05,  avg # of iterations =  3.0

     total cpu time spent up to now is      421.9 secs

     total energy              =    -202.78200976 Ry
     Harris-Foulkes estimate   =    -202.74806856 Ry
     estimated scf accuracy    <       1.17133784 Ry

     iteration # 13     ecut=    50.00 Ry     beta= 0.70
     Davidson diagonalization with overlap
     ethr =  5.12E-05,  avg # of iterations =  1.2

     total cpu time spent up to now is      436.0 secs

     total energy              =    -202.95806489 Ry
     Harris-Foulkes estimate   =    -202.78414644 Ry
     estimated scf accuracy    <       1.52533494 Ry

     iteration # 14     ecut=    50.00 Ry     beta= 0.70
     Davidson diagonalization with overlap
     ethr =  5.12E-05,  avg # of iterations =  3.3

     total cpu time spent up to now is      456.8 secs

     total energy              =    -202.05933884 Ry
     Harris-Foulkes estimate   =    -203.00463280 Ry
     estimated scf accuracy    <       3.93893267 Ry

     iteration # 15     ecut=    50.00 Ry     beta= 0.70
     Davidson diagonalization with overlap
     ethr =  5.12E-05,  avg # of iterations =  3.7

     total cpu time spent up to now is      482.2 secs

     total energy              =    -202.63293889 Ry
     Harris-Foulkes estimate   =    -202.63153960 Ry
     estimated scf accuracy    <       0.05001264 Ry

     iteration # 16     ecut=    50.00 Ry     beta= 0.70
     Davidson diagonalization with overlap
     ethr =  5.12E-05,  avg # of iterations =  1.0

     total cpu time spent up to now is      496.2 secs

     total energy              =    -202.63024316 Ry
     Harris-Foulkes estimate   =    -202.63297399 Ry
     estimated scf accuracy    <       0.05609215 Ry

     iteration # 17     ecut=    50.00 Ry     beta= 0.70
     Davidson diagonalization with overlap
     ethr =  5.12E-05,  avg # of iterations =  1.0

     total cpu time spent up to now is      510.1 secs

     total energy              =    -202.62288613 Ry
     Harris-Foulkes estimate   =    -202.63037662 Ry
     estimated scf accuracy    <       0.04346525 Ry

     iteration # 18     ecut=    50.00 Ry     beta= 0.70
     Davidson diagonalization with overlap
     ethr =  5.12E-05,  avg # of iterations =  1.0

     total cpu time spent up to now is      524.0 secs

     total energy              =    -202.62111270 Ry
     Harris-Foulkes estimate   =    -202.62405413 Ry
     estimated scf accuracy    <       0.01545599 Ry

     iteration # 19     ecut=    50.00 Ry     beta= 0.70
     Davidson diagonalization with overlap
     ethr =  5.12E-05,  avg # of iterations =  1.0

     total cpu time spent up to now is      538.0 secs

     total energy              =    -202.62153420 Ry
     Harris-Foulkes estimate   =    -202.62177999 Ry
     estimated scf accuracy    <       0.00411852 Ry

     iteration # 20     ecut=    50.00 Ry     beta= 0.70
     Davidson diagonalization with overlap
     ethr =  1.87E-05,  avg # of iterations =  1.0

     total cpu time spent up to now is      551.9 secs

     total energy              =    -202.62246649 Ry
     Harris-Foulkes estimate   =    -202.62161948 Ry
     estimated scf accuracy    <       0.00319561 Ry

     iteration # 21     ecut=    50.00 Ry     beta= 0.70
     Davidson diagonalization with overlap
     ethr =  1.45E-05,  avg # of iterations =  1.0

     total cpu time spent up to now is      565.8 secs

     total energy              =    -202.62281959 Ry
     Harris-Foulkes estimate   =    -202.62260475 Ry
     estimated scf accuracy    <       0.00706996 Ry

     iteration # 22     ecut=    50.00 Ry     beta= 0.70
     Davidson diagonalization with overlap
     ethr =  1.45E-05,  avg # of iterations =  1.0

     total cpu time spent up to now is      579.9 secs

     total energy              =    -202.62263779 Ry
     Harris-Foulkes estimate   =    -202.62283461 Ry
     estimated scf accuracy    <       0.00820236 Ry

     iteration # 23     ecut=    50.00 Ry     beta= 0.70
     Davidson diagonalization with overlap
     ethr =  1.45E-05,  avg # of iterations =  1.0

     total cpu time spent up to now is      593.7 secs

     total energy              =    -202.62004998 Ry
     Harris-Foulkes estimate   =    -202.62264372 Ry
     estimated scf accuracy    <       0.00734833 Ry

     iteration # 24     ecut=    50.00 Ry     beta= 0.70
     Davidson diagonalization with overlap
     ethr =  1.45E-05,  avg # of iterations =  2.1

     total cpu time spent up to now is      609.8 secs

     total energy              =    -202.62108064 Ry
     Harris-Foulkes estimate   =    -202.62110920 Ry
     estimated scf accuracy    <       0.00011931 Ry

     iteration # 25     ecut=    50.00 Ry     beta= 0.70
     Davidson diagonalization with overlap
     ethr =  5.42E-07,  avg # of iterations =  2.4

     total cpu time spent up to now is      625.0 secs

     total energy              =    -202.62109449 Ry
     Harris-Foulkes estimate   =    -202.62109883 Ry
     estimated scf accuracy    <       0.00001399 Ry

     iteration # 26     ecut=    50.00 Ry     beta= 0.70
     Davidson diagonalization with overlap
     ethr =  6.36E-08,  avg # of iterations =  1.3

     total cpu time spent up to now is      639.2 secs

     total energy              =    -202.62109786 Ry
     Harris-Foulkes estimate   =    -202.62109661 Ry
     estimated scf accuracy    <       0.00000214 Ry

     iteration # 27     ecut=    50.00 Ry     beta= 0.70
     Davidson diagonalization with overlap
     ethr =  9.72E-09,  avg # of iterations =  2.5

     total cpu time spent up to now is      654.5 secs

     total energy              =    -202.62109717 Ry
     Harris-Foulkes estimate   =    -202.62109819 Ry
     estimated scf accuracy    <       0.00000439 Ry

     iteration # 28     ecut=    50.00 Ry     beta= 0.70
     Davidson diagonalization with overlap
     ethr =  9.72E-09,  avg # of iterations =  1.0

     total cpu time spent up to now is      668.4 secs

     total energy              =    -202.62109655 Ry
     Harris-Foulkes estimate   =    -202.62109730 Ry
     estimated scf accuracy    <       0.00000196 Ry

     iteration # 29     ecut=    50.00 Ry     beta= 0.70
     Davidson diagonalization with overlap
     ethr =  8.93E-09,  avg # of iterations =  2.0

     total cpu time spent up to now is      683.8 secs

     total energy              =    -202.62109668 Ry
     Harris-Foulkes estimate   =    -202.62109676 Ry
     estimated scf accuracy    <       0.00000027 Ry

     iteration # 30     ecut=    50.00 Ry     beta= 0.70
     Davidson diagonalization with overlap
     ethr =  1.24E-09,  avg # of iterations =  1.9

     total cpu time spent up to now is      698.3 secs

     total energy              =    -202.62109669 Ry
     Harris-Foulkes estimate   =    -202.62109670 Ry
     estimated scf accuracy    <       0.00000004 Ry

     iteration # 31     ecut=    50.00 Ry     beta= 0.70
     Davidson diagonalization with overlap
     ethr =  1.59E-10,  avg # of iterations =  2.2

     total cpu time spent up to now is      713.8 secs

     End of self-consistent calculation

     Number of k-points >= 100: set verbosity='high' to print the bands.

     the Fermi energy is     9.6410 ev

!    total energy              =    -202.62109669 Ry
     Harris-Foulkes estimate   =    -202.62109670 Ry
     estimated scf accuracy    <          8.1E-09 Ry

     The total energy is the sum of the following terms:

     one-electron contribution =     -45.90851361 Ry
     hartree contribution      =      49.35752041 Ry
     xc contribution           =     -72.52034968 Ry
     ewald contribution        =    -133.55577798 Ry
     smearing contrib. (-TS)   =       0.00602417 Ry

     convergence has been achieved in  31 iterations

     Forces acting on atoms (cartesian axes, Ry/au):

     atom    1 type  1   force =     0.00000000    0.00000000    0.00000000
     atom    2 type  2   force =    -0.00000000   -0.00000000   -0.00000000

     Total force =     0.000000     Total SCF correction =     0.000000


     Computing stress (Cartesian axis) and pressure

          total   stress  (Ry/bohr**3)                   (kbar)     P=  171.98
   0.00129400  -0.00231157  -0.00221929        190.35   -340.04   -326.47
  -0.00231157   0.00129400   0.00221929       -340.04    190.35    326.47
  -0.00221929   0.00221929   0.00091926       -326.47    326.47    135.23


     number of scf cycles    =   2
     number of bfgs steps    =   1

     enthalpy old            =    -201.3313648112 Ry
     enthalpy new            =    -202.6210966933 Ry

     CASE: enthalpy_new < enthalpy_old

     new trust radius        =       0.1290698537 bohr
     new conv_thr            =            1.0E-10 Ry

     new unit-cell volume =    241.75029 a.u.^3 (    35.82370 Ang^3 )
     density =     12.07572 g/cm^3

CELL_PARAMETERS (alat=  7.48000000)
   0.556425494  -0.556425494   0.374192452
   0.424537557   0.540345721   0.499020420
  -0.540345721  -0.424537557   0.499020420

ATOMIC_POSITIONS (crystal)
Au       0.000000000   0.000000000   0.000000000
Cu       0.500000000   0.500000000   0.500000000



     Writing output data file CuAu_L10.save/
     NEW-OLD atomic charge density approx. for the potential

     Check: negative core charge=   -0.000009
     extrapolated charge   20.79850, renormalised to   22.00000

     total cpu time spent up to now is      727.4 secs

     Self-consistent Calculation

     iteration #  1     ecut=    50.00 Ry     beta= 0.70
     Davidson diagonalization with overlap
     ethr =  1.00E-06,  avg # of iterations =  6.7

     total cpu time spent up to now is      760.0 secs

     total energy              =    -201.89738381 Ry
     Harris-Foulkes estimate   =    -205.67545640 Ry
     estimated scf accuracy    <       0.65064425 Ry

     iteration #  2     ecut=    50.00 Ry     beta= 0.70
     Davidson diagonalization with overlap
     ethr =  2.96E-03,  avg # of iterations =  3.3

     total cpu time spent up to now is      782.6 secs

     total energy              =    -201.14794558 Ry
     Harris-Foulkes estimate   =    -204.81494020 Ry
     estimated scf accuracy    <      20.27105904 Ry

     iteration #  3     ecut=    50.00 Ry     beta= 0.70
     Davidson diagonalization with overlap
     ethr =  2.96E-03,  avg # of iterations =  3.0

     total cpu time spent up to now is      803.9 secs

     total energy              =    -202.68335057 Ry
     Harris-Foulkes estimate   =    -202.79681483 Ry
     estimated scf accuracy    <       0.40066581 Ry

     iteration #  4     ecut=    50.00 Ry     beta= 0.70
     Davidson diagonalization with overlap
     ethr =  1.82E-03,  avg # of iterations =  1.0

     total cpu time spent up to now is      817.9 secs

     total energy              =    -202.69686766 Ry
     Harris-Foulkes estimate   =    -202.71563983 Ry
     estimated scf accuracy    <       0.17110894 Ry

     iteration #  5     ecut=    50.00 Ry     beta= 0.70
     Davidson diagonalization with overlap
     ethr =  7.78E-04,  avg # of iterations =  1.0

     total cpu time spent up to now is      831.8 secs

     total energy              =    -202.68743222 Ry
     Harris-Foulkes estimate   =    -202.69962852 Ry
     estimated scf accuracy    <       0.08827087 Ry

     iteration #  6     ecut=    50.00 Ry     beta= 0.70
     Davidson diagonalization with overlap
     ethr =  4.01E-04,  avg # of iterations =  1.0

     total cpu time spent up to now is      845.7 secs

     total energy              =    -202.68302657 Ry
     Harris-Foulkes estimate   =    -202.68947620 Ry
     estimated scf accuracy    <       0.03759213 Ry

     iteration #  7     ecut=    50.00 Ry     beta= 0.70
     Davidson diagonalization with overlap
     ethr =  1.71E-04,  avg # of iterations =  1.0

     total cpu time spent up to now is      859.8 secs

     total energy              =    -202.68395397 Ry
     Harris-Foulkes estimate   =    -202.68437673 Ry
     estimated scf accuracy    <       0.01194353 Ry

     iteration #  8     ecut=    50.00 Ry     beta= 0.70
     Davidson diagonalization with overlap
     ethr =  5.43E-05,  avg # of iterations =  1.0

     total cpu time spent up to now is      873.7 secs

     total energy              =    -202.68405793 Ry
     Harris-Foulkes estimate   =    -202.68410347 Ry
     estimated scf accuracy    <       0.01022219 Ry

     iteration #  9     ecut=    50.00 Ry     beta= 0.70
     Davidson diagonalization with overlap
     ethr =  4.65E-05,  avg # of iterations =  1.0

     total cpu time spent up to now is      887.8 secs

     total energy              =    -202.68241048 Ry
     Harris-Foulkes estimate   =    -202.68407919 Ry
     estimated scf accuracy    <       0.00919443 Ry

     iteration # 10     ecut=    50.00 Ry     beta= 0.70
     Davidson diagonalization with overlap
     ethr =  4.18E-05,  avg # of iterations =  1.0

     total cpu time spent up to now is      901.7 secs

     total energy              =    -202.68211873 Ry
     Harris-Foulkes estimate   =    -202.68272179 Ry
     estimated scf accuracy    <       0.00267890 Ry

     iteration # 11     ecut=    50.00 Ry     beta= 0.70
     Davidson diagonalization with overlap
     ethr =  1.22E-05,  avg # of iterations =  1.4

     total cpu time spent up to now is      915.9 secs

     total energy              =    -202.68221226 Ry
     Harris-Foulkes estimate   =    -202.68230362 Ry
     estimated scf accuracy    <       0.00039292 Ry

     iteration # 12     ecut=    50.00 Ry     beta= 0.70
     Davidson diagonalization with overlap
     ethr =  1.79E-06,  avg # of iterations =  2.7

     total cpu time spent up to now is      932.1 secs

     total energy              =    -202.68224814 Ry
     Harris-Foulkes estimate   =    -202.68225921 Ry
     estimated scf accuracy    <       0.00003639 Ry

     iteration # 13     ecut=    50.00 Ry     beta= 0.70
     Davidson diagonalization with overlap
     ethr =  1.65E-07,  avg # of iterations =  1.8

     total cpu time spent up to now is      946.9 secs

     total energy              =    -202.68225266 Ry
     Harris-Foulkes estimate   =    -202.68225232 Ry
     estimated scf accuracy    <       0.00000149 Ry

     iteration # 14     ecut=    50.00 Ry     beta= 0.70
     Davidson diagonalization with overlap
     ethr =  6.79E-09,  avg # of iterations =  2.2

     total cpu time spent up to now is      962.9 secs

     total energy              =    -202.68225300 Ry
     Harris-Foulkes estimate   =    -202.68225292 Ry
     estimated scf accuracy    <       0.00000287 Ry

     iteration # 15     ecut=    50.00 Ry     beta= 0.70
     Davidson diagonalization with overlap
     ethr =  6.79E-09,  avg # of iterations =  1.0

     total cpu time spent up to now is      976.9 secs

     total energy              =    -202.68225296 Ry
     Harris-Foulkes estimate   =    -202.68225301 Ry
     estimated scf accuracy    <       0.00000333 Ry

     iteration # 16     ecut=    50.00 Ry     beta= 0.70
     Davidson diagonalization with overlap
     ethr =  6.79E-09,  avg # of iterations =  1.0

     total cpu time spent up to now is      990.8 secs

     total energy              =    -202.68225277 Ry
     Harris-Foulkes estimate   =    -202.68225296 Ry
     estimated scf accuracy    <       0.00000313 Ry

     iteration # 17     ecut=    50.00 Ry     beta= 0.70
     Davidson diagonalization with overlap
     ethr =  6.79E-09,  avg # of iterations =  1.0

     total cpu time spent up to now is     1004.7 secs

     total energy              =    -202.68225201 Ry
     Harris-Foulkes estimate   =    -202.68225278 Ry
     estimated scf accuracy    <       0.00000231 Ry

     iteration # 18     ecut=    50.00 Ry     beta= 0.70
     Davidson diagonalization with overlap
     ethr =  6.79E-09,  avg # of iterations =  2.0

     total cpu time spent up to now is     1020.6 secs

     total energy              =    -202.68225231 Ry
     Harris-Foulkes estimate   =    -202.68225231 Ry
     estimated scf accuracy    <       0.00000001 Ry

     iteration # 19     ecut=    50.00 Ry     beta= 0.70
     Davidson diagonalization with overlap
     ethr =  6.00E-11,  avg # of iterations =  2.5

     total cpu time spent up to now is     1036.0 secs

     total energy              =    -202.68225231 Ry
     Harris-Foulkes estimate   =    -202.68225231 Ry
     estimated scf accuracy    <          6.0E-09 Ry

     iteration # 20     ecut=    50.00 Ry     beta= 0.70
     Davidson diagonalization with overlap
     ethr =  2.74E-11,  avg # of iterations =  1.1

     total cpu time spent up to now is     1050.1 secs

     total energy              =    -202.68225231 Ry
     Harris-Foulkes estimate   =    -202.68225231 Ry
     estimated scf accuracy    <          4.3E-10 Ry

     iteration # 21     ecut=    50.00 Ry     beta= 0.70
     Davidson diagonalization with overlap
     ethr =  1.94E-12,  avg # of iterations =  2.1

     total cpu time spent up to now is     1066.1 secs

     End of self-consistent calculation

     Number of k-points >= 100: set verbosity='high' to print the bands.

     the Fermi energy is    10.6563 ev

!    total energy              =    -202.68225231 Ry
     Harris-Foulkes estimate   =    -202.68225231 Ry
     estimated scf accuracy    <          8.4E-11 Ry

     The total energy is the sum of the following terms:

     one-electron contribution =     -38.76158852 Ry
     hartree contribution      =      46.36494075 Ry
     xc contribution           =     -72.46893306 Ry
     ewald contribution        =    -137.81756450 Ry
     smearing contrib. (-TS)   =       0.00089302 Ry

     convergence has been achieved in  21 iterations

     Forces acting on atoms (cartesian axes, Ry/au):

     atom    1 type  1   force =     0.00000000    0.00000000    0.00000000
     atom    2 type  2   force =     0.00000000    0.00000000    0.00000000

     Total force =     0.000000     Total SCF correction =     0.000000


     Computing stress (Cartesian axis) and pressure

          total   stress  (Ry/bohr**3)                   (kbar)     P=   99.21
   0.00075501  -0.00181645  -0.00173569        111.07   -267.21   -255.33
  -0.00181645   0.00075501   0.00173569       -267.21    111.07    255.33
  -0.00173569   0.00173569   0.00051332       -255.33    255.33     75.51


     number of scf cycles    =   3
     number of bfgs steps    =   2

     enthalpy old            =    -202.6210966933 Ry
     enthalpy new            =    -202.6822523070 Ry

     CASE: enthalpy_new < enthalpy_old

     new trust radius        =       0.1426772302 bohr
     new conv_thr            =            1.0E-10 Ry

     new unit-cell volume =    223.91037 a.u.^3 (    33.18009 Ang^3 )
     density =     13.03785 g/cm^3

CELL_PARAMETERS (alat=  7.48000000)
   0.547924366  -0.547924366   0.334989991
   0.387744680   0.530182511   0.488334399
  -0.530182511  -0.387744680   0.488334399

ATOMIC_POSITIONS (crystal)
Au       0.000000000   0.000000000   0.000000000
Cu       0.500000000   0.500000000   0.500000000



     Writing output data file CuAu_L10.save/
     NEW-OLD atomic charge density approx. for the potential

     Check: negative core charge=   -0.000006
     extrapolated charge   20.24719, renormalised to   22.00000

     total cpu time spent up to now is     1079.6 secs

     Self-consistent Calculation

     iteration #  1     ecut=    50.00 Ry     beta= 0.70
     Davidson diagonalization with overlap
     ethr =  1.00E-06,  avg # of iterations =  7.3

     total cpu time spent up to now is     1112.7 secs

     total energy              =    -201.41776108 Ry
     Harris-Foulkes estimate   =    -206.66352384 Ry
     estimated scf accuracy    <       1.09586499 Ry

     iteration #  2     ecut=    50.00 Ry     beta= 0.70
     Davidson diagonalization with overlap
     ethr =  4.98E-03,  avg # of iterations =  3.4

     total cpu time spent up to now is     1135.3 secs

     total energy              =    -200.50744212 Ry
     Harris-Foulkes estimate   =    -205.92891403 Ry
     estimated scf accuracy    <      27.79767874 Ry

     iteration #  3     ecut=    50.00 Ry     beta= 0.70
     Davidson diagonalization with overlap
     ethr =  4.98E-03,  avg # of iterations =  3.0

     total cpu time spent up to now is     1157.0 secs

     total energy              =    -202.71800271 Ry
     Harris-Foulkes estimate   =    -202.93224671 Ry
     estimated scf accuracy    <       0.69149015 Ry

     iteration #  4     ecut=    50.00 Ry     beta= 0.70
     Davidson diagonalization with overlap
     ethr =  3.14E-03,  avg # of iterations =  1.1

     total cpu time spent up to now is     1171.1 secs

     total energy              =    -202.75321256 Ry
     Harris-Foulkes estimate   =    -202.78381134 Ry
     estimated scf accuracy    <       0.25500831 Ry

     iteration #  5     ecut=    50.00 Ry     beta= 0.70
     Davidson diagonalization with overlap
     ethr =  1.16E-03,  avg # of iterations =  1.0

     total cpu time spent up to now is     1185.0 secs

     total energy              =    -202.73564704 Ry
     Harris-Foulkes estimate   =    -202.75761009 Ry
     estimated scf accuracy    <       0.13313745 Ry

     iteration #  6     ecut=    50.00 Ry     beta= 0.70
     Davidson diagonalization with overlap
     ethr =  6.05E-04,  avg # of iterations =  1.0

     total cpu time spent up to now is     1199.0 secs

     total energy              =    -202.72984724 Ry
     Harris-Foulkes estimate   =    -202.73967341 Ry
     estimated scf accuracy    <       0.04679476 Ry

     iteration #  7     ecut=    50.00 Ry     beta= 0.70
     Davidson diagonalization with overlap
     ethr =  2.13E-04,  avg # of iterations =  1.0

     total cpu time spent up to now is     1212.9 secs

     total energy              =    -202.73045251 Ry
     Harris-Foulkes estimate   =    -202.73247804 Ry
     estimated scf accuracy    <       0.00883378 Ry

     iteration #  8     ecut=    50.00 Ry     beta= 0.70
     Davidson diagonalization with overlap
     ethr =  4.02E-05,  avg # of iterations =  1.9

     total cpu time spent up to now is     1227.7 secs

     total energy              =    -202.73098156 Ry
     Harris-Foulkes estimate   =    -202.73124081 Ry
     estimated scf accuracy    <       0.00106436 Ry

     iteration #  9     ecut=    50.00 Ry     beta= 0.70
     Davidson diagonalization with overlap
     ethr =  4.84E-06,  avg # of iterations =  2.9

     total cpu time spent up to now is     1243.4 secs

     total energy              =    -202.73105678 Ry
     Harris-Foulkes estimate   =    -202.73110074 Ry
     estimated scf accuracy    <       0.00010209 Ry

     iteration # 10     ecut=    50.00 Ry     beta= 0.70
     Davidson diagonalization with overlap
     ethr =  4.64E-07,  avg # of iterations =  2.3

     total cpu time spent up to now is     1260.4 secs

     total energy              =    -202.73108317 Ry
     Harris-Foulkes estimate   =    -202.73109512 Ry
     estimated scf accuracy    <       0.00002860 Ry

     iteration # 11     ecut=    50.00 Ry     beta= 0.70
     Davidson diagonalization with overlap
     ethr =  1.30E-07,  avg # of iterations =  2.0

     total cpu time spent up to now is     1276.1 secs

     total energy              =    -202.73108817 Ry
     Harris-Foulkes estimate   =    -202.73108823 Ry
     estimated scf accuracy    <       0.00000016 Ry

     iteration # 12     ecut=    50.00 Ry     beta= 0.70
     Davidson diagonalization with overlap
     ethr =  7.18E-10,  avg # of iterations =  3.0

     total cpu time spent up to now is     1295.7 secs

     total energy              =    -202.73108828 Ry
     Harris-Foulkes estimate   =    -202.73108830 Ry
     estimated scf accuracy    <       0.00000006 Ry

     iteration # 13     ecut=    50.00 Ry     beta= 0.70
     Davidson diagonalization with overlap
     ethr =  2.65E-10,  avg # of iterations =  1.0

     total cpu time spent up to now is     1309.7 secs

     total energy              =    -202.73108829 Ry
     Harris-Foulkes estimate   =    -202.73108829 Ry
     estimated scf accuracy    <          5.8E-09 Ry

     iteration # 14     ecut=    50.00 Ry     beta= 0.70
     Davidson diagonalization with overlap
     ethr =  2.63E-11,  avg # of iterations =  2.0

     total cpu time spent up to now is     1324.6 secs

     total energy              =    -202.73108829 Ry
     Harris-Foulkes estimate   =    -202.73108829 Ry
     estimated scf accuracy    <          6.8E-10 Ry

     iteration # 15     ecut=    50.00 Ry     beta= 0.70
     Davidson diagonalization with overlap
     ethr =  3.10E-12,  avg # of iterations =  2.1

     total cpu time spent up to now is     1339.8 secs

     total energy              =    -202.73108829 Ry
     Harris-Foulkes estimate   =    -202.73108829 Ry
     estimated scf accuracy    <          9.9E-10 Ry

     iteration # 16     ecut=    50.00 Ry     beta= 0.70
     Davidson diagonalization with overlap
     ethr =  3.10E-12,  avg # of iterations =  2.0

     total cpu time spent up to now is     1355.2 secs

     End of self-consistent calculation

     Number of k-points >= 100: set verbosity='high' to print the bands.

     the Fermi energy is    12.0341 ev

!    total energy              =    -202.73108829 Ry
     Harris-Foulkes estimate   =    -202.73108829 Ry
     estimated scf accuracy    <          2.3E-11 Ry

     The total energy is the sum of the following terms:

     one-electron contribution =     -30.54051379 Ry
     hartree contribution      =      43.19529519 Ry
     xc contribution           =     -72.47150204 Ry
     ewald contribution        =    -142.91457401 Ry
     smearing contrib. (-TS)   =       0.00020636 Ry

     convergence has been achieved in  16 iterations

     Forces acting on atoms (cartesian axes, Ry/au):

     atom    1 type  1   force =     0.00000000    0.00000000    0.00000000
     atom    2 type  2   force =    -0.00000000   -0.00000000    0.00000000

     Total force =     0.000000     Total SCF correction =     0.000000


     Computing stress (Cartesian axis) and pressure

          total   stress  (Ry/bohr**3)                   (kbar)     P=   68.33
   0.00047867  -0.00150478  -0.00137911         70.42   -221.36   -202.87
  -0.00150478   0.00047867   0.00137911       -221.36     70.42    202.87
  -0.00137911   0.00137911   0.00043610       -202.87    202.87     64.15


     number of scf cycles    =   4
     number of bfgs steps    =   3

     enthalpy old            =    -202.6822523070 Ry
     enthalpy new            =    -202.7310882867 Ry

     CASE: enthalpy_new < enthalpy_old

     new trust radius        =       0.2155946941 bohr
     new conv_thr            =            1.0E-10 Ry

     new unit-cell volume =    195.53541 a.u.^3 (    28.97536 Ang^3 )
     density =     14.92982 g/cm^3

CELL_PARAMETERS (alat=  7.48000000)
   0.534107032  -0.534107032   0.279242370
   0.329412324   0.510462985   0.473443323
  -0.510462985  -0.329412324   0.473443323

ATOMIC_POSITIONS (crystal)
Au      -0.000000000   0.000000000   0.000000000
Cu       0.500000000   0.500000000   0.500000000



     Writing output data file CuAu_L10.save/
     NEW-OLD atomic charge density approx. for the potential

     Check: negative core charge=   -0.000002
     extrapolated charge   18.80754, renormalised to   22.00000

     total cpu time spent up to now is     1368.8 secs

     Self-consistent Calculation

     iteration #  1     ecut=    50.00 Ry     beta= 0.70
     Davidson diagonalization with overlap
     ethr =  1.00E-06,  avg # of iterations =  7.7

     total cpu time spent up to now is     1403.3 secs

     total energy              =    -200.05680059 Ry
     Harris-Foulkes estimate   =    -208.80581043 Ry
     estimated scf accuracy    <       2.28071636 Ry

     iteration #  2     ecut=    50.00 Ry     beta= 0.70
     Davidson diagonalization with overlap
     ethr =  1.00E-02,  avg # of iterations =  3.4

     total cpu time spent up to now is     1425.6 secs

     total energy              =    -199.43253257 Ry
     Harris-Foulkes estimate   =    -207.97924080 Ry
     estimated scf accuracy    <      37.51603907 Ry

     iteration #  3     ecut=    50.00 Ry     beta= 0.70
     Davidson diagonalization with overlap
     ethr =  1.00E-02,  avg # of iterations =  3.0

     total cpu time spent up to now is     1447.4 secs

     total energy              =    -202.69972303 Ry
     Harris-Foulkes estimate   =    -203.20333912 Ry
     estimated scf accuracy    <       1.47170276 Ry

     iteration #  4     ecut=    50.00 Ry     beta= 0.70
     Davidson diagonalization with overlap
     ethr =  6.69E-03,  avg # of iterations =  1.1

     total cpu time spent up to now is     1461.4 secs

     total energy              =    -202.80244102 Ry
     Harris-Foulkes estimate   =    -202.87024394 Ry
     estimated scf accuracy    <       0.44123972 Ry

     iteration #  5     ecut=    50.00 Ry     beta= 0.70
     Davidson diagonalization with overlap
     ethr =  2.01E-03,  avg # of iterations =  1.0

     total cpu time spent up to now is     1475.3 secs

     total energy              =    -202.76683441 Ry
     Harris-Foulkes estimate   =    -202.81358844 Ry
     estimated scf accuracy    <       0.18431351 Ry

     iteration #  6     ecut=    50.00 Ry     beta= 0.70
     Davidson diagonalization with overlap
     ethr =  8.38E-04,  avg # of iterations =  1.0

     total cpu time spent up to now is     1489.4 secs

     total energy              =    -202.77007404 Ry
     Harris-Foulkes estimate   =    -202.77883321 Ry
     estimated scf accuracy    <       0.02941532 Ry

     iteration #  7     ecut=    50.00 Ry     beta= 0.70
     Davidson diagonalization with overlap
     ethr =  1.34E-04,  avg # of iterations =  2.1

     total cpu time spent up to now is     1504.9 secs

     total energy              =    -202.77392152 Ry
     Harris-Foulkes estimate   =    -202.77420617 Ry
     estimated scf accuracy    <       0.00122256 Ry

     iteration #  8     ecut=    50.00 Ry     beta= 0.70
     Davidson diagonalization with overlap
     ethr =  5.56E-06,  avg # of iterations =  3.6

     total cpu time spent up to now is     1522.7 secs

     total energy              =    -202.77411328 Ry
     Harris-Foulkes estimate   =    -202.77415511 Ry
     estimated scf accuracy    <       0.00010758 Ry

     iteration #  9     ecut=    50.00 Ry     beta= 0.70
     Davidson diagonalization with overlap
     ethr =  4.89E-07,  avg # of iterations =  2.0

     total cpu time spent up to now is     1538.4 secs

     total energy              =    -202.77413623 Ry
     Harris-Foulkes estimate   =    -202.77413630 Ry
     estimated scf accuracy    <       0.00000035 Ry

     iteration # 10     ecut=    50.00 Ry     beta= 0.70
     Davidson diagonalization with overlap
     ethr =  1.60E-09,  avg # of iterations =  3.0

     total cpu time spent up to now is     1558.6 secs

     total energy              =    -202.77413655 Ry
     Harris-Foulkes estimate   =    -202.77413660 Ry
     estimated scf accuracy    <       0.00000016 Ry

     iteration # 11     ecut=    50.00 Ry     beta= 0.70
     Davidson diagonalization with overlap
     ethr =  7.31E-10,  avg # of iterations =  1.0

     total cpu time spent up to now is     1572.5 secs

     total energy              =    -202.77413655 Ry
     Harris-Foulkes estimate   =    -202.77413656 Ry
     estimated scf accuracy    <       0.00000002 Ry

     iteration # 12     ecut=    50.00 Ry     beta= 0.70
     Davidson diagonalization with overlap
     ethr =  1.07E-10,  avg # of iterations =  2.0

     total cpu time spent up to now is     1587.8 secs

     total energy              =    -202.77413656 Ry
     Harris-Foulkes estimate   =    -202.77413656 Ry
     estimated scf accuracy    <          5.3E-10 Ry

     iteration # 13     ecut=    50.00 Ry     beta= 0.70
     Davidson diagonalization with overlap
     ethr =  2.43E-12,  avg # of iterations =  2.9

     total cpu time spent up to now is     1605.7 secs

     End of self-consistent calculation

     Number of k-points >= 100: set verbosity='high' to print the bands.

     the Fermi energy is    14.7032 ev

!    total energy              =    -202.77413656 Ry
     Harris-Foulkes estimate   =    -202.77413656 Ry
     estimated scf accuracy    <          5.1E-11 Ry

     The total energy is the sum of the following terms:

     one-electron contribution =     -17.92192246 Ry
     hartree contribution      =      38.72925419 Ry
     xc contribution           =     -72.55204796 Ry
     ewald contribution        =    -151.02936929 Ry
     smearing contrib. (-TS)   =      -0.00005103 Ry

     convergence has been achieved in  13 iterations

     Forces acting on atoms (cartesian axes, Ry/au):

     atom    1 type  1   force =     0.00000000    0.00000000   -0.00000000
     atom    2 type  2   force =    -0.00000000   -0.00000000    0.00000000

     Total force =     0.000000     Total SCF correction =     0.000000


     Computing stress (Cartesian axis) and pressure

          total   stress  (Ry/bohr**3)                   (kbar)     P=  130.63
   0.00071256  -0.00102891  -0.00073790        104.82   -151.36   -108.55
  -0.00102891   0.00071256   0.00073790       -151.36    104.82    108.55
  -0.00073790   0.00073790   0.00123881       -108.55    108.55    182.23


     number of scf cycles    =   5
     number of bfgs steps    =   4

     enthalpy old            =    -202.7310882867 Ry
     enthalpy new            =    -202.7741365557 Ry

     CASE: enthalpy_new < enthalpy_old

     new trust radius        =       0.1085145996 bohr
     new conv_thr            =            1.0E-10 Ry

     new unit-cell volume =    187.70457 a.u.^3 (    27.81495 Ang^3 )
     density =     15.55268 g/cm^3

CELL_PARAMETERS (alat=  7.48000000)
   0.532957631  -0.532957631   0.268728521
   0.300544992   0.497411041   0.477680910
  -0.497411041  -0.300544992   0.477680910

ATOMIC_POSITIONS (crystal)
Au      -0.000000000   0.000000000  -0.000000000
Cu       0.500000000   0.500000000   0.500000000



     Writing output data file CuAu_L10.save/
     NEW-OLD atomic charge density approx. for the potential

     Check: negative core charge=   -0.000002
     extrapolated charge   21.08220, renormalised to   22.00000

     total cpu time spent up to now is     1619.2 secs

     Self-consistent Calculation

     iteration #  1     ecut=    50.00 Ry     beta= 0.70
     Davidson diagonalization with overlap
     ethr =  1.00E-06,  avg # of iterations =  6.0

     total cpu time spent up to now is     1650.6 secs

     total energy              =    -202.28600238 Ry
     Harris-Foulkes estimate   =    -204.27906704 Ry
     estimated scf accuracy    <       0.42983887 Ry

     iteration #  2     ecut=    50.00 Ry     beta= 0.70
     Davidson diagonalization with overlap
     ethr =  1.95E-03,  avg # of iterations =  3.1

     total cpu time spent up to now is     1672.1 secs

     total energy              =    -201.91951812 Ry
     Harris-Foulkes estimate   =    -204.01139444 Ry
     estimated scf accuracy    <      10.11521529 Ry

     iteration #  3     ecut=    50.00 Ry     beta= 0.70
     Davidson diagonalization with overlap
     ethr =  1.95E-03,  avg # of iterations =  3.0

     total cpu time spent up to now is     1691.5 secs

     total energy              =    -202.79375717 Ry
     Harris-Foulkes estimate   =    -202.83531937 Ry
     estimated scf accuracy    <       0.18907557 Ry

     iteration #  4     ecut=    50.00 Ry     beta= 0.70
     Davidson diagonalization with overlap
     ethr =  8.59E-04,  avg # of iterations =  1.0

     total cpu time spent up to now is     1705.5 secs

     total energy              =    -202.79202585 Ry
     Harris-Foulkes estimate   =    -202.80286056 Ry
     estimated scf accuracy    <       0.10674248 Ry

     iteration #  5     ecut=    50.00 Ry     beta= 0.70
     Davidson diagonalization with overlap
     ethr =  4.85E-04,  avg # of iterations =  1.0

     total cpu time spent up to now is     1719.4 secs

     total energy              =    -202.78363143 Ry
     Harris-Foulkes estimate   =    -202.79345171 Ry
     estimated scf accuracy    <       0.05727959 Ry

     iteration #  6     ecut=    50.00 Ry     beta= 0.70
     Davidson diagonalization with overlap
     ethr =  2.60E-04,  avg # of iterations =  1.0

     total cpu time spent up to now is     1733.3 secs

     total energy              =    -202.78139741 Ry
     Harris-Foulkes estimate   =    -202.78558606 Ry
     estimated scf accuracy    <       0.01683253 Ry

     iteration #  7     ecut=    50.00 Ry     beta= 0.70
     Davidson diagonalization with overlap
     ethr =  7.65E-05,  avg # of iterations =  1.2

     total cpu time spent up to now is     1747.3 secs

     total energy              =    -202.78244304 Ry
     Harris-Foulkes estimate   =    -202.78282712 Ry
     estimated scf accuracy    <       0.00131009 Ry

     iteration #  8     ecut=    50.00 Ry     beta= 0.70
     Davidson diagonalization with overlap
     ethr =  5.95E-06,  avg # of iterations =  2.3

     total cpu time spent up to now is     1763.7 secs

     total energy              =    -202.78272690 Ry
     Harris-Foulkes estimate   =    -202.78272647 Ry
     estimated scf accuracy    <       0.00000979 Ry

     iteration #  9     ecut=    50.00 Ry     beta= 0.70
     Davidson diagonalization with overlap
     ethr =  4.45E-08,  avg # of iterations =  2.5

     total cpu time spent up to now is     1780.4 secs

     total energy              =    -202.78272963 Ry
     Harris-Foulkes estimate   =    -202.78272867 Ry
     estimated scf accuracy    <       0.00001207 Ry

     iteration # 10     ecut=    50.00 Ry     beta= 0.70
     Davidson diagonalization with overlap
     ethr =  4.45E-08,  avg # of iterations =  1.1

     total cpu time spent up to now is     1794.4 secs

     total energy              =    -202.78272401 Ry
     Harris-Foulkes estimate   =    -202.78273059 Ry
     estimated scf accuracy    <       0.00002091 Ry

     iteration # 11     ecut=    50.00 Ry     beta= 0.70
     Davidson diagonalization with overlap
     ethr =  4.45E-08,  avg # of iterations =  2.0

     total cpu time spent up to now is     1810.5 secs

     total energy              =    -202.78272724 Ry
     Harris-Foulkes estimate   =    -202.78272732 Ry
     estimated scf accuracy    <       0.00000119 Ry

     iteration # 12     ecut=    50.00 Ry     beta= 0.70
     Davidson diagonalization with overlap
     ethr =  5.41E-09,  avg # of iterations =  1.0

     total cpu time spent up to now is     1824.4 secs

     total energy              =    -202.78272693 Ry
     Harris-Foulkes estimate   =    -202.78272730 Ry
     estimated scf accuracy    <       0.00000119 Ry

     iteration # 13     ecut=    50.00 Ry     beta= 0.70
     Davidson diagonalization with overlap
     ethr =  5.41E-09,  avg # of iterations =  1.0

     total cpu time spent up to now is     1838.5 secs

     total energy              =    -202.78272703 Ry
     Harris-Foulkes estimate   =    -202.78272704 Ry
     estimated scf accuracy    <       0.00000011 Ry

     iteration # 14     ecut=    50.00 Ry     beta= 0.70
     Davidson diagonalization with overlap
     ethr =  4.79E-10,  avg # of iterations =  1.3

     total cpu time spent up to now is     1852.5 secs

     total energy              =    -202.78272703 Ry
     Harris-Foulkes estimate   =    -202.78272703 Ry
     estimated scf accuracy    <       0.00000005 Ry

     iteration # 15     ecut=    50.00 Ry     beta= 0.70
     Davidson diagonalization with overlap
     ethr =  2.43E-10,  avg # of iterations =  1.1

     total cpu time spent up to now is     1866.6 secs

     total energy              =    -202.78272702 Ry
     Harris-Foulkes estimate   =    -202.78272703 Ry
     estimated scf accuracy    <       0.00000003 Ry

     iteration # 16     ecut=    50.00 Ry     beta= 0.70
     Davidson diagonalization with overlap
     ethr =  1.31E-10,  avg # of iterations =  1.6

     total cpu time spent up to now is     1881.0 secs

     total energy              =    -202.78272702 Ry
     Harris-Foulkes estimate   =    -202.78272702 Ry
     estimated scf accuracy    <          1.1E-09 Ry

     iteration # 17     ecut=    50.00 Ry     beta= 0.70
     Davidson diagonalization with overlap
     ethr =  5.19E-12,  avg # of iterations =  2.7

     total cpu time spent up to now is     1898.1 secs

     total energy              =    -202.78272702 Ry
     Harris-Foulkes estimate   =    -202.78272702 Ry
     estimated scf accuracy    <          2.2E-10 Ry

     iteration # 18     ecut=    50.00 Ry     beta= 0.70
     Davidson diagonalization with overlap
     ethr =  1.01E-12,  avg # of iterations =  2.0

     total cpu time spent up to now is     1913.9 secs

     End of self-consistent calculation

     Number of k-points >= 100: set verbosity='high' to print the bands.

     the Fermi energy is    15.5861 ev

!    total energy              =    -202.78272702 Ry
     Harris-Foulkes estimate   =    -202.78272702 Ry
     estimated scf accuracy    <          7.2E-13 Ry

     The total energy is the sum of the following terms:

     one-electron contribution =     -14.10560542 Ry
     hartree contribution      =      37.43091554 Ry
     xc contribution           =     -72.58434389 Ry
     ewald contribution        =    -153.52362893 Ry
     smearing contrib. (-TS)   =      -0.00006432 Ry

     convergence has been achieved in  18 iterations

     Forces acting on atoms (cartesian axes, Ry/au):

     atom    1 type  1   force =    -0.00000000   -0.00000000    0.00000000
     atom    2 type  2   force =     0.00000000    0.00000000    0.00000000

     Total force =     0.000000     Total SCF correction =     0.000000


     Computing stress (Cartesian axis) and pressure

          total   stress  (Ry/bohr**3)                   (kbar)     P=  158.75
   0.00092042  -0.00056978  -0.00035931        135.40    -83.82    -52.86
  -0.00056978   0.00092042   0.00035931        -83.82    135.40     52.86
  -0.00035931   0.00035931   0.00139657        -52.86     52.86    205.44


     number of scf cycles    =   6
     number of bfgs steps    =   5

     enthalpy old            =    -202.7741365557 Ry
     enthalpy new            =    -202.7827270213 Ry

     CASE: enthalpy_new < enthalpy_old

     new trust radius        =       0.0906677793 bohr
     new conv_thr            =            1.0E-10 Ry

     new unit-cell volume =    192.40553 a.u.^3 (    28.51156 Ang^3 )
     density =     15.17269 g/cm^3

CELL_PARAMETERS (alat=  7.48000000)
   0.539782556  -0.539782556   0.281436523
   0.289726660   0.491445440   0.492564528
  -0.491445440  -0.289726660   0.492564528

ATOMIC_POSITIONS (crystal)
Au      -0.000000000   0.000000000   0.000000000
Cu       0.500000000   0.500000000   0.500000000



     Writing output data file CuAu_L10.save/
     NEW-OLD atomic charge density approx. for the potential

     Check: negative core charge=   -0.000002
     extrapolated charge   22.53751, renormalised to   22.00000

     total cpu time spent up to now is     1927.4 secs

     Self-consistent Calculation

     iteration #  1     ecut=    50.00 Ry     beta= 0.70
     Davidson diagonalization with overlap
     ethr =  1.00E-06,  avg # of iterations =  5.9

     total cpu time spent up to now is     1958.9 secs

     total energy              =    -202.28336039 Ry
     Harris-Foulkes estimate   =    -202.02457973 Ry
     estimated scf accuracy    <       0.48141729 Ry

     iteration #  2     ecut=    50.00 Ry     beta= 0.70
     Davidson diagonalization with overlap
     ethr =  2.19E-03,  avg # of iterations =  3.0

     total cpu time spent up to now is     1978.7 secs

     total energy              =    -202.69363993 Ry
     Harris-Foulkes estimate   =    -203.61376571 Ry
     estimated scf accuracy    <       2.57069905 Ry

     iteration #  3     ecut=    50.00 Ry     beta= 0.70
     Davidson diagonalization with overlap
     ethr =  2.19E-03,  avg # of iterations =  2.0

     total cpu time spent up to now is     1996.0 secs

     total energy              =    -202.82515431 Ry
     Harris-Foulkes estimate   =    -202.88921462 Ry
     estimated scf accuracy    <       0.40188985 Ry

     iteration #  4     ecut=    50.00 Ry     beta= 0.70
     Davidson diagonalization with overlap
     ethr =  1.83E-03,  avg # of iterations =  1.0

     total cpu time spent up to now is     2009.9 secs

     total energy              =    -202.80597701 Ry
     Harris-Foulkes estimate   =    -202.83281387 Ry
     estimated scf accuracy    <       0.20714398 Ry

     iteration #  5     ecut=    50.00 Ry     beta= 0.70
     Davidson diagonalization with overlap
     ethr =  9.42E-04,  avg # of iterations =  1.0

     total cpu time spent up to now is     2023.8 secs

     total energy              =    -202.79514558 Ry
     Harris-Foulkes estimate   =    -202.80982335 Ry
     estimated scf accuracy    <       0.09811053 Ry

     iteration #  6     ecut=    50.00 Ry     beta= 0.70
     Davidson diagonalization with overlap
     ethr =  4.46E-04,  avg # of iterations =  1.0

     total cpu time spent up to now is     2037.8 secs

     total energy              =    -202.78317677 Ry
     Harris-Foulkes estimate   =    -202.79739251 Ry
     estimated scf accuracy    <       0.03910005 Ry

     iteration #  7     ecut=    50.00 Ry     beta= 0.70
     Davidson diagonalization with overlap
     ethr =  1.78E-04,  avg # of iterations =  2.0

     total cpu time spent up to now is     2052.9 secs

     total energy              =    -202.79017069 Ry
     Harris-Foulkes estimate   =    -202.79013487 Ry
     estimated scf accuracy    <       0.00050807 Ry

     iteration #  8     ecut=    50.00 Ry     beta= 0.70
     Davidson diagonalization with overlap
     ethr =  2.31E-06,  avg # of iterations =  3.9

     total cpu time spent up to now is     2072.3 secs

     total energy              =    -202.79034423 Ry
     Harris-Foulkes estimate   =    -202.79035634 Ry
     estimated scf accuracy    <       0.00094247 Ry

     iteration #  9     ecut=    50.00 Ry     beta= 0.70
     Davidson diagonalization with overlap
     ethr =  2.31E-06,  avg # of iterations =  1.0

     total cpu time spent up to now is     2086.2 secs

     total energy              =    -202.78995464 Ry
     Harris-Foulkes estimate   =    -202.79034682 Ry
     estimated scf accuracy    <       0.00089117 Ry

     iteration # 10     ecut=    50.00 Ry     beta= 0.70
     Davidson diagonalization with overlap
     ethr =  2.31E-06,  avg # of iterations =  2.1

     total cpu time spent up to now is     2102.4 secs

     total energy              =    -202.79015214 Ry
     Harris-Foulkes estimate   =    -202.79023897 Ry
     estimated scf accuracy    <       0.00024832 Ry

     iteration # 11     ecut=    50.00 Ry     beta= 0.70
     Davidson diagonalization with overlap
     ethr =  1.13E-06,  avg # of iterations =  1.3

     total cpu time spent up to now is     2116.7 secs

     total energy              =    -202.79019559 Ry
     Harris-Foulkes estimate   =    -202.79019502 Ry
     estimated scf accuracy    <       0.00000321 Ry

     iteration # 12     ecut=    50.00 Ry     beta= 0.70
     Davidson diagonalization with overlap
     ethr =  1.46E-08,  avg # of iterations =  3.0

     total cpu time spent up to now is     2135.4 secs

     total energy              =    -202.79019559 Ry
     Harris-Foulkes estimate   =    -202.79019777 Ry
     estimated scf accuracy    <       0.00001085 Ry

     iteration # 13     ecut=    50.00 Ry     beta= 0.70
     Davidson diagonalization with overlap
     ethr =  1.46E-08,  avg # of iterations =  1.1

     total cpu time spent up to now is     2149.5 secs

     total energy              =    -202.79019578 Ry
     Harris-Foulkes estimate   =    -202.79019613 Ry
     estimated scf accuracy    <       0.00000173 Ry

     iteration # 14     ecut=    50.00 Ry     beta= 0.70
     Davidson diagonalization with overlap
     ethr =  7.88E-09,  avg # of iterations =  1.2

     total cpu time spent up to now is     2163.6 secs

     total energy              =    -202.79019585 Ry
     Harris-Foulkes estimate   =    -202.79019592 Ry
     estimated scf accuracy    <       0.00000015 Ry

     iteration # 15     ecut=    50.00 Ry     beta= 0.70
     Davidson diagonalization with overlap
     ethr =  6.78E-10,  avg # of iterations =  2.6

     total cpu time spent up to now is     2180.3 secs

     total energy              =    -202.79019590 Ry
     Harris-Foulkes estimate   =    -202.79019591 Ry
     estimated scf accuracy    <       0.00000005 Ry

     iteration # 16     ecut=    50.00 Ry     beta= 0.70
     Davidson diagonalization with overlap
     ethr =  2.24E-10,  avg # of iterations =  1.0

     total cpu time spent up to now is     2194.2 secs

     total energy              =    -202.79019590 Ry
     Harris-Foulkes estimate   =    -202.79019590 Ry
     estimated scf accuracy    <       0.00000001 Ry

     iteration # 17     ecut=    50.00 Ry     beta= 0.70
     Davidson diagonalization with overlap
     ethr =  5.07E-11,  avg # of iterations =  1.0

     total cpu time spent up to now is     2208.2 secs

     total energy              =    -202.79019590 Ry
     Harris-Foulkes estimate   =    -202.79019590 Ry
     estimated scf accuracy    <          1.4E-09 Ry

     iteration # 18     ecut=    50.00 Ry     beta= 0.70
     Davidson diagonalization with overlap
     ethr =  6.22E-12,  avg # of iterations =  2.0

     total cpu time spent up to now is     2222.9 secs

     End of self-consistent calculation

     Number of k-points >= 100: set verbosity='high' to print the bands.

     the Fermi energy is    15.0483 ev

!    total energy              =    -202.79019590 Ry
     Harris-Foulkes estimate   =    -202.79019590 Ry
     estimated scf accuracy    <          3.6E-11 Ry

     The total energy is the sum of the following terms:

     one-electron contribution =     -15.76911655 Ry
     hartree contribution      =      37.89184864 Ry
     xc contribution           =     -72.54259217 Ry
     ewald contribution        =    -152.37019481 Ry
     smearing contrib. (-TS)   =      -0.00014103 Ry

     convergence has been achieved in  18 iterations

     Forces acting on atoms (cartesian axes, Ry/au):

     atom    1 type  1   force =     0.00000000    0.00000000    0.00000000
     atom    2 type  2   force =     0.00000000    0.00000000    0.00000000

     Total force =     0.000000     Total SCF correction =     0.000000


     Computing stress (Cartesian axis) and pressure

          total   stress  (Ry/bohr**3)                   (kbar)     P=   82.36
   0.00054091  -0.00023907  -0.00018865         79.57    -35.17    -27.75
  -0.00023907   0.00054091   0.00018865        -35.17     79.57     27.75
  -0.00018865   0.00018865   0.00059778        -27.75     27.75     87.94


     number of scf cycles    =   7
     number of bfgs steps    =   6

     enthalpy old            =    -202.7827270213 Ry
     enthalpy new            =    -202.7901958999 Ry

     CASE: enthalpy_new < enthalpy_old

     new trust radius        =       0.0562370868 bohr
     new conv_thr            =            1.0E-10 Ry

     new unit-cell volume =    197.81975 a.u.^3 (    29.31386 Ang^3 )
     density =     14.75742 g/cm^3

CELL_PARAMETERS (alat=  7.48000000)
   0.545751911  -0.545751911   0.289868717
   0.287617212   0.491320303   0.501854528
  -0.491320303  -0.287617212   0.501854528

ATOMIC_POSITIONS (crystal)
Au      -0.000000000   0.000000000   0.000000000
Cu       0.500000000   0.500000000   0.500000000



     Writing output data file CuAu_L10.save/
     NEW-OLD atomic charge density approx. for the potential

     Check: negative core charge=   -0.000003
     extrapolated charge   22.60212, renormalised to   22.00000

     total cpu time spent up to now is     2236.5 secs

     Self-consistent Calculation

     iteration #  1     ecut=    50.00 Ry     beta= 0.70
     Davidson diagonalization with overlap
     ethr =  1.00E-06,  avg # of iterations =  4.9

     total cpu time spent up to now is     2266.7 secs

     total energy              =    -202.10531839 Ry
     Harris-Foulkes estimate   =    -201.91196587 Ry
     estimated scf accuracy    <       0.65544261 Ry

     iteration #  2     ecut=    50.00 Ry     beta= 0.70
     Davidson diagonalization with overlap
     ethr =  2.98E-03,  avg # of iterations =  3.0

     total cpu time spent up to now is     2286.2 secs

     total energy              =    -202.69236256 Ry
     Harris-Foulkes estimate   =    -203.87629343 Ry
     estimated scf accuracy    <       3.22218327 Ry

     iteration #  3     ecut=    50.00 Ry     beta= 0.70
     Davidson diagonalization with overlap
     ethr =  2.98E-03,  avg # of iterations =  2.0

     total cpu time spent up to now is     2303.5 secs

     total energy              =    -202.84569691 Ry
     Harris-Foulkes estimate   =    -202.93427071 Ry
     estimated scf accuracy    <       0.55037030 Ry

     iteration #  4     ecut=    50.00 Ry     beta= 0.70
     Davidson diagonalization with overlap
     ethr =  2.50E-03,  avg # of iterations =  1.0

     total cpu time spent up to now is     2317.5 secs

     total energy              =    -202.81351772 Ry
     Harris-Foulkes estimate   =    -202.85582931 Ry
     estimated scf accuracy    <       0.29591346 Ry

     iteration #  5     ecut=    50.00 Ry     beta= 0.70
     Davidson diagonalization with overlap
     ethr =  1.35E-03,  avg # of iterations =  1.0

     total cpu time spent up to now is     2331.4 secs

     total energy              =    -202.80488533 Ry
     Harris-Foulkes estimate   =    -202.81956996 Ry
     estimated scf accuracy    <       0.13440526 Ry

     iteration #  6     ecut=    50.00 Ry     beta= 0.70
     Davidson diagonalization with overlap
     ethr =  6.11E-04,  avg # of iterations =  1.0

     total cpu time spent up to now is     2345.4 secs

     total energy              =    -202.79188854 Ry
     Harris-Foulkes estimate   =    -202.80668333 Ry
     estimated scf accuracy    <       0.07352071 Ry

     iteration #  7     ecut=    50.00 Ry     beta= 0.70
     Davidson diagonalization with overlap
     ethr =  3.34E-04,  avg # of iterations =  1.0

     total cpu time spent up to now is     2359.2 secs

     total energy              =    -202.79213252 Ry
     Harris-Foulkes estimate   =    -202.79502232 Ry
     estimated scf accuracy    <       0.01671543 Ry

     iteration #  8     ecut=    50.00 Ry     beta= 0.70
     Davidson diagonalization with overlap
     ethr =  7.60E-05,  avg # of iterations =  1.3

     total cpu time spent up to now is     2373.4 secs

     total energy              =    -202.79306223 Ry
     Harris-Foulkes estimate   =    -202.79299667 Ry
     estimated scf accuracy    <       0.00375147 Ry

     iteration #  9     ecut=    50.00 Ry     beta= 0.70
     Davidson diagonalization with overlap
     ethr =  1.71E-05,  avg # of iterations =  1.6

     total cpu time spent up to now is     2387.7 secs

     total energy              =    -202.79182315 Ry
     Harris-Foulkes estimate   =    -202.79310635 Ry
     estimated scf accuracy    <       0.00451122 Ry

     iteration # 10     ecut=    50.00 Ry     beta= 0.70
     Davidson diagonalization with overlap
     ethr =  1.71E-05,  avg # of iterations =  1.7

     total cpu time spent up to now is     2402.1 secs

     total energy              =    -202.79228655 Ry
     Harris-Foulkes estimate   =    -202.79231201 Ry
     estimated scf accuracy    <       0.00009401 Ry

     iteration # 11     ecut=    50.00 Ry     beta= 0.70
     Davidson diagonalization with overlap
     ethr =  4.27E-07,  avg # of iterations =  2.4

     total cpu time spent up to now is     2420.1 secs

     total energy              =    -202.79232051 Ry
     Harris-Foulkes estimate   =    -202.79232540 Ry
     estimated scf accuracy    <       0.00000946 Ry

     iteration # 12     ecut=    50.00 Ry     beta= 0.70
     Davidson diagonalization with overlap
     ethr =  4.30E-08,  avg # of iterations =  1.6

     total cpu time spent up to now is     2434.4 secs

     total energy              =    -202.79232297 Ry
     Harris-Foulkes estimate   =    -202.79232265 Ry
     estimated scf accuracy    <       0.00000285 Ry

     iteration # 13     ecut=    50.00 Ry     beta= 0.70
     Davidson diagonalization with overlap
     ethr =  1.30E-08,  avg # of iterations =  1.0

     total cpu time spent up to now is     2448.4 secs

     total energy              =    -202.79232178 Ry
     Harris-Foulkes estimate   =    -202.79232310 Ry
     estimated scf accuracy    <       0.00000554 Ry

     iteration # 14     ecut=    50.00 Ry     beta= 0.70
     Davidson diagonalization with overlap
     ethr =  1.30E-08,  avg # of iterations =  1.2

     total cpu time spent up to now is     2462.3 secs

     total energy              =    -202.79232204 Ry
     Harris-Foulkes estimate   =    -202.79232221 Ry
     estimated scf accuracy    <       0.00000039 Ry

     iteration # 15     ecut=    50.00 Ry     beta= 0.70
     Davidson diagonalization with overlap
     ethr =  1.79E-09,  avg # of iterations =  2.0

     total cpu time spent up to now is     2478.5 secs

     total energy              =    -202.79232215 Ry
     Harris-Foulkes estimate   =    -202.79232218 Ry
     estimated scf accuracy    <       0.00000012 Ry

     iteration # 16     ecut=    50.00 Ry     beta= 0.70
     Davidson diagonalization with overlap
     ethr =  5.39E-10,  avg # of iterations =  1.0

     total cpu time spent up to now is     2492.4 secs

     total energy              =    -202.79232216 Ry
     Harris-Foulkes estimate   =    -202.79232216 Ry
     estimated scf accuracy    <          3.9E-10 Ry

     iteration # 17     ecut=    50.00 Ry     beta= 0.70
     Davidson diagonalization with overlap
     ethr =  1.78E-12,  avg # of iterations =  3.0

     total cpu time spent up to now is     2513.3 secs

     total energy              =    -202.79232216 Ry
     Harris-Foulkes estimate   =    -202.79232216 Ry
     estimated scf accuracy    <          2.3E-09 Ry

     iteration # 18     ecut=    50.00 Ry     beta= 0.70
     Davidson diagonalization with overlap
     ethr =  1.78E-12,  avg # of iterations =  2.7

     total cpu time spent up to now is     2530.9 secs

     End of self-consistent calculation

     Number of k-points >= 100: set verbosity='high' to print the bands.

     the Fermi energy is    14.4668 ev

!    total energy              =    -202.79232216 Ry
     Harris-Foulkes estimate   =    -202.79232216 Ry
     estimated scf accuracy    <          9.8E-12 Ry

     The total energy is the sum of the following terms:

     one-electron contribution =     -17.82243164 Ry
     hartree contribution      =      38.51400019 Ry
     xc contribution           =     -72.50497749 Ry
     ewald contribution        =    -150.97878182 Ry
     smearing contrib. (-TS)   =      -0.00013141 Ry

     convergence has been achieved in  18 iterations

     Forces acting on atoms (cartesian axes, Ry/au):

     atom    1 type  1   force =     0.00000000    0.00000000    0.00000000
     atom    2 type  2   force =    -0.00000000   -0.00000000   -0.00000000

     Total force =     0.000000     Total SCF correction =     0.000000


     Computing stress (Cartesian axis) and pressure

          total   stress  (Ry/bohr**3)                   (kbar)     P=   21.10
   0.00017131  -0.00008635  -0.00007724         25.20    -12.70    -11.36
  -0.00008635   0.00017131   0.00007724        -12.70     25.20     11.36
  -0.00007724   0.00007724   0.00008772        -11.36     11.36     12.90


     number of scf cycles    =   8
     number of bfgs steps    =   7

     enthalpy old            =    -202.7901958999 Ry
     enthalpy new            =    -202.7923221622 Ry

     CASE: enthalpy_new < enthalpy_old

     new trust radius        =       0.0100861556 bohr
     new conv_thr            =            1.0E-10 Ry

     new unit-cell volume =    199.20556 a.u.^3 (    29.51922 Ang^3 )
     density =     14.65476 g/cm^3

CELL_PARAMETERS (alat=  7.48000000)
   0.547884178  -0.547884178   0.290542593
   0.286881672   0.491607597   0.503705543
  -0.491607597  -0.286881672   0.503705543

ATOMIC_POSITIONS (crystal)
Au      -0.000000000   0.000000000  -0.000000000
Cu       0.500000000   0.500000000   0.500000000



     Writing output data file CuAu_L10.save/
     NEW-OLD atomic charge density approx. for the potential

     Check: negative core charge=   -0.000003
     extrapolated charge   22.15304, renormalised to   22.00000

     total cpu time spent up to now is     2544.4 secs

     Self-consistent Calculation

     iteration #  1     ecut=    50.00 Ry     beta= 0.70
     Davidson diagonalization with overlap
     ethr =  1.00E-06,  avg # of iterations =  4.0

     total cpu time spent up to now is     2570.4 secs

     total energy              =    -202.75827546 Ry
     Harris-Foulkes estimate   =    -202.54934846 Ry
     estimated scf accuracy    <       0.03196950 Ry

     iteration #  2     ecut=    50.00 Ry     beta= 0.70
     Davidson diagonalization with overlap
     ethr =  1.45E-04,  avg # of iterations =  3.0

     total cpu time spent up to now is     2591.9 secs

     total energy              =    -202.77005852 Ry
     Harris-Foulkes estimate   =    -202.86216176 Ry
     estimated scf accuracy    <       0.31603517 Ry

     iteration #  3     ecut=    50.00 Ry     beta= 0.70
     Davidson diagonalization with overlap
     ethr =  1.45E-04,  avg # of iterations =  2.6

     total cpu time spent up to now is     2608.9 secs

     total energy              =    -202.79410163 Ry
     Harris-Foulkes estimate   =    -202.79721347 Ry
     estimated scf accuracy    <       0.02335288 Ry

     iteration #  4     ecut=    50.00 Ry     beta= 0.70
     Davidson diagonalization with overlap
     ethr =  1.06E-04,  avg # of iterations =  1.0

     total cpu time spent up to now is     2622.9 secs

     total energy              =    -202.79363216 Ry
     Harris-Foulkes estimate   =    -202.79454410 Ry
     estimated scf accuracy    <       0.01169884 Ry

     iteration #  5     ecut=    50.00 Ry     beta= 0.70
     Davidson diagonalization with overlap
     ethr =  5.32E-05,  avg # of iterations =  1.0

     total cpu time spent up to now is     2636.8 secs

     total energy              =    -202.79319043 Ry
     Harris-Foulkes estimate   =    -202.79375106 Ry
     estimated scf accuracy    <       0.00687911 Ry

     iteration #  6     ecut=    50.00 Ry     beta= 0.70
     Davidson diagonalization with overlap
     ethr =  3.13E-05,  avg # of iterations =  1.0

     total cpu time spent up to now is     2650.8 secs

     total energy              =    -202.79171482 Ry
     Harris-Foulkes estimate   =    -202.79324473 Ry
     estimated scf accuracy    <       0.00418834 Ry

     iteration #  7     ecut=    50.00 Ry     beta= 0.70
     Davidson diagonalization with overlap
     ethr =  1.90E-05,  avg # of iterations =  2.0

     total cpu time spent up to now is     2665.9 secs

     total energy              =    -202.79249924 Ry
     Harris-Foulkes estimate   =    -202.79249224 Ry
     estimated scf accuracy    <       0.00008791 Ry

     iteration #  8     ecut=    50.00 Ry     beta= 0.70
     Davidson diagonalization with overlap
     ethr =  4.00E-07,  avg # of iterations =  2.7

     total cpu time spent up to now is     2682.0 secs

     total energy              =    -202.79250831 Ry
     Harris-Foulkes estimate   =    -202.79251605 Ry
[...]
     Harris-Foulkes estimate   =    -202.79281460 Ry
     estimated scf accuracy    <          9.2E-12 Ry

     The total energy is the sum of the following terms:

     one-electron contribution =     -18.45012691 Ry
     hartree contribution      =      38.70709653 Ry
     xc contribution           =     -72.49389075 Ry
     ewald contribution        =    -150.55605606 Ry
     smearing contrib. (-TS)   =       0.00016259 Ry

     convergence has been achieved in  11 iterations

     Forces acting on atoms (cartesian axes, Ry/au):

     atom    1 type  1   force =     0.00000000    0.00000000    0.00000000
     atom    2 type  2   force =     0.00000000    0.00000000    0.00000000

     Total force =     0.000000     Total SCF correction =     0.000000


     Computing stress (Cartesian axis) and pressure

          total   stress  (Ry/bohr**3)                   (kbar)     P=    0.59
   0.00000357  -0.00000256  -0.00000245          0.53     -0.38     -0.36
  -0.00000256   0.00000357   0.00000245         -0.38      0.53      0.36
  -0.00000245   0.00000245   0.00000491         -0.36      0.36      0.72


     number of scf cycles    =  21
     number of bfgs steps    =  20

     enthalpy old            =    -202.7928076019 Ry
     enthalpy new            =    -202.7928146039 Ry

     CASE: enthalpy_new < enthalpy_old

     new trust radius        =       0.0008554322 bohr
     new conv_thr            =            1.0E-10 Ry

     new unit-cell volume =    199.54136 a.u.^3 (    29.56898 Ang^3 )
     density =     14.63009 g/cm^3

CELL_PARAMETERS (alat=  7.48000000)
   0.572373136  -0.572373136   0.284541058
   0.290005910   0.479796074   0.493878356
  -0.479796074  -0.290005910   0.493878356

ATOMIC_POSITIONS (crystal)
Au      -0.000000000   0.000000000  -0.000000000
Cu       0.500000000   0.500000000   0.500000000



     Writing output data file CuAu_L10.save/
     NEW-OLD atomic charge density approx. for the potential

     Check: negative core charge=   -0.000003
     extrapolated charge   22.00344, renormalised to   22.00000

     total cpu time spent up to now is     5111.4 secs

     Self-consistent Calculation

     iteration #  1     ecut=    50.00 Ry     beta= 0.70
     Davidson diagonalization with overlap
     ethr =  1.00E-06,  avg # of iterations =  2.0

     Threshold (ethr) on eigenvalues was too large:
     Diagonalizing with lowered threshold

     Davidson diagonalization with overlap
     ethr =  6.36E-08,  avg # of iterations =  1.0

     total cpu time spent up to now is     5143.9 secs

     total energy              =    -202.79279965 Ry
     Harris-Foulkes estimate   =    -202.78723106 Ry
     estimated scf accuracy    <       0.00001406 Ry

     iteration #  2     ecut=    50.00 Ry     beta= 0.70
     Davidson diagonalization with overlap
     ethr =  6.39E-08,  avg # of iterations =  3.0

     total cpu time spent up to now is     5164.2 secs

     total energy              =    -202.79279756 Ry
     Harris-Foulkes estimate   =    -202.79284942 Ry
     estimated scf accuracy    <       0.00020487 Ry

     iteration #  3     ecut=    50.00 Ry     beta= 0.70
     Davidson diagonalization with overlap
     ethr =  6.39E-08,  avg # of iterations =  3.0

     total cpu time spent up to now is     5181.8 secs

     total energy              =    -202.79281542 Ry
     Harris-Foulkes estimate   =    -202.79281647 Ry
     estimated scf accuracy    <       0.00000802 Ry

     iteration #  4     ecut=    50.00 Ry     beta= 0.70
     Davidson diagonalization with overlap
     ethr =  3.64E-08,  avg # of iterations =  1.0

     total cpu time spent up to now is     5195.7 secs

     total energy              =    -202.79281483 Ry
     Harris-Foulkes estimate   =    -202.79281558 Ry
     estimated scf accuracy    <       0.00000444 Ry

     iteration #  5     ecut=    50.00 Ry     beta= 0.70
     Davidson diagonalization with overlap
     ethr =  2.02E-08,  avg # of iterations =  1.0

     total cpu time spent up to now is     5209.6 secs

     total energy              =    -202.79281474 Ry
     Harris-Foulkes estimate   =    -202.79281499 Ry
     estimated scf accuracy    <       0.00000114 Ry

     iteration #  6     ecut=    50.00 Ry     beta= 0.70
     Davidson diagonalization with overlap
     ethr =  5.19E-09,  avg # of iterations =  1.1

     total cpu time spent up to now is     5223.6 secs

     total energy              =    -202.79281478 Ry
     Harris-Foulkes estimate   =    -202.79281482 Ry
     estimated scf accuracy    <       0.00000012 Ry

     iteration #  7     ecut=    50.00 Ry     beta= 0.70
     Davidson diagonalization with overlap
     ethr =  5.56E-10,  avg # of iterations =  2.0

     total cpu time spent up to now is     5239.6 secs

     total energy              =    -202.79281481 Ry
     Harris-Foulkes estimate   =    -202.79281481 Ry
     estimated scf accuracy    <          5.2E-10 Ry

     iteration #  8     ecut=    50.00 Ry     beta= 0.70
     Davidson diagonalization with overlap
     ethr =  2.35E-12,  avg # of iterations =  3.0

     total cpu time spent up to now is     5260.1 secs

     total energy              =    -202.79281481 Ry
     Harris-Foulkes estimate   =    -202.79281481 Ry
     estimated scf accuracy    <          6.1E-09 Ry

     iteration #  9     ecut=    50.00 Ry     beta= 0.70
     Davidson diagonalization with overlap
     ethr =  2.35E-12,  avg # of iterations =  1.0

     total cpu time spent up to now is     5274.2 secs

     total energy              =    -202.79281481 Ry
     Harris-Foulkes estimate   =    -202.79281481 Ry
     estimated scf accuracy    <          4.9E-09 Ry

     iteration # 10     ecut=    50.00 Ry     beta= 0.70
     Davidson diagonalization with overlap
     ethr =  2.35E-12,  avg # of iterations =  1.0

     total cpu time spent up to now is     5288.1 secs

     total energy              =    -202.79281481 Ry
     Harris-Foulkes estimate   =    -202.79281481 Ry
     estimated scf accuracy    <          3.5E-09 Ry

     iteration # 11     ecut=    50.00 Ry     beta= 0.70
     Davidson diagonalization with overlap
     ethr =  2.35E-12,  avg # of iterations =  2.9

     total cpu time spent up to now is     5306.1 secs

     End of self-consistent calculation

     Number of k-points >= 100: set verbosity='high' to print the bands.

     the Fermi energy is    14.2997 ev

!    total energy              =    -202.79281481 Ry
     Harris-Foulkes estimate   =    -202.79281481 Ry
     estimated scf accuracy    <          1.2E-11 Ry

     The total energy is the sum of the following terms:

     one-electron contribution =     -18.46064147 Ry
     hartree contribution      =      38.71011386 Ry
     xc contribution           =     -72.49364624 Ry
     ewald contribution        =    -150.54880231 Ry
     smearing contrib. (-TS)   =       0.00016135 Ry

     convergence has been achieved in  11 iterations

     Forces acting on atoms (cartesian axes, Ry/au):

     atom    1 type  1   force =     0.00000000    0.00000000    0.00000000
     atom    2 type  2   force =     0.00000000    0.00000000    0.00000000

     Total force =     0.000000     Total SCF correction =     0.000000


     Computing stress (Cartesian axis) and pressure

          total   stress  (Ry/bohr**3)                   (kbar)     P=    0.08
   0.00000067  -0.00000048  -0.00000058          0.10     -0.07     -0.09
  -0.00000048   0.00000067   0.00000058         -0.07      0.10      0.09
  -0.00000058   0.00000058   0.00000033         -0.09      0.09      0.05


     bfgs converged in  22 scf cycles and  21 bfgs steps
     (criteria: energy <  1.0E-04 Ry, force <  1.0E-03Ry/Bohr, cell <  5.0E-01kbar)

     End of BFGS Geometry Optimization

     Final enthalpy =    -202.7928148089 Ry
Begin final coordinates
     new unit-cell volume =    199.54136 a.u.^3 (    29.56898 Ang^3 )
     density =     14.63009 g/cm^3

CELL_PARAMETERS (alat=  7.48000000)
   0.572373136  -0.572373136   0.284541058
   0.290005910   0.479796074   0.493878356
  -0.479796074  -0.290005910   0.493878356

ATOMIC_POSITIONS (crystal)
Au      -0.000000000   0.000000000  -0.000000000
Cu       0.500000000   0.500000000   0.500000000
End final coordinates



     Writing output data file CuAu_L10.save/

     A final scf calculation at the relaxed structure.
     The G-vectors are recalculated for the final unit cell
     Results may differ from those at the preceding step.
 
     G-vector sticks info
     --------------------
     sticks:   dense  smooth     PW     G-vecs:    dense   smooth      PW
     Sum        1417     571    217                37673     9565    2281
 


     bravais-lattice index     =            7
     lattice parameter (alat)  =       7.4800  a.u.
     unit-cell volume          =     199.5414 (a.u.)^3
     number of atoms/cell      =            2
     number of atomic types    =            2
     number of electrons       =        22.00
     number of Kohn-Sham states=           15
     kinetic-energy cutoff     =      50.0000  Ry
     charge density cutoff     =     500.0000  Ry
     convergence threshold     =      1.0E-10
     mixing beta               =       0.7000
     number of iterations used =            8  plain     mixing
     Exchange-correlation      = PBE ( 1  4  3  4 0 0)

     celldm(1)=   7.480000  celldm(2)=   0.000000  celldm(3)=   0.927000
     celldm(4)=   0.000000  celldm(5)=   0.000000  celldm(6)=   0.000000

     crystal axes: (cart. coord. in units of alat)
               a(1) = (   0.572373  -0.572373   0.284541 )  
               a(2) = (   0.290006   0.479796   0.493878 )  
               a(3) = (  -0.479796  -0.290006   0.493878 )  

     reciprocal axes: (cart. coord. in units 2 pi/alat)
               b(1) = (  0.797390 -0.797390  0.306425 )  
               b(2) = (  0.419815  0.879220  0.924124 )  
               b(3) = ( -0.879220 -0.419815  0.924124 )  


     PseudoPot. # 1 for Au read from file:
     ./Au.pbe-dn-rrkjus_psl.0.1.UPF
     MD5 check sum: 2577dac56bcf5cc3f91526b665170132
     Pseudo is Ultrasoft + core correction, Zval = 11.0
     Generated using "atomic" code by A. Dal Corso v.5.0.2 svn rev. 9415
     Using radial grid of 1279 points,  6 beta functions with: 
                l(1) =   0
                l(2) =   0
                l(3) =   1
                l(4) =   1
                l(5) =   2
                l(6) =   2
     Q(r) pseudized with 0 coefficients 


     PseudoPot. # 2 for Cu read from file:
     ./Cu.pbe-dn-rrkjus_psl.0.2.UPF
     MD5 check sum: 1265fa589247fc99ea3a830f142ff47f
     Pseudo is Ultrasoft + core correction, Zval = 11.0
     Generated using "atomic" code by A. Dal Corso v.5.0.2 svn rev. 9415
     Using radial grid of 1199 points,  6 beta functions with: 
                l(1) =   0
                l(2) =   0
                l(3) =   1
                l(4) =   1
                l(5) =   2
                l(6) =   2
     Q(r) pseudized with 0 coefficients 


     atomic species   valence    mass     pseudopotential
        Au            11.00   196.97000     Au( 1.00)
        Cu            11.00    63.54600     Cu( 1.00)

      4 Sym. Ops., with inversion, found



   Cartesian axes

     site n.     atom                  positions (alat units)
         1           Au  tau(   1) = (   0.0000000   0.0000000   0.0000000  )
         2           Cu  tau(   2) = (   0.1912915  -0.1912915   0.6361489  )

     number of k points=   476  Marzari-Vanderbilt smearing, width (Ry)=  0.0250

     Number of k-points >= 100: set verbosity='high' to print them.

     Dense  grid:    37673 G-vectors     FFT dimensions: (  45,  40,  40)

     Smooth grid:     9565 G-vectors     FFT dimensions: (  30,  25,  25)

     Estimated max dynamical RAM per process >     276.87 MB

     Check: negative core charge=   -0.000005

     Initial potential from superposition of free atoms

     starting charge   21.99966, renormalised to   22.00000
     Starting wfcs are   18 randomized atomic wfcs

     total cpu time spent up to now is     5324.3 secs

     Self-consistent Calculation

     iteration #  1     ecut=    50.00 Ry     beta= 0.70
     Davidson diagonalization with overlap
     c_bands:  1 eigenvalues not converged
     ethr =  1.00E-06,  avg # of iterations = 10.6

     total cpu time spent up to now is     5353.3 secs

     total energy              =    -202.69169311 Ry
     Harris-Foulkes estimate   =    -202.85507557 Ry
     estimated scf accuracy    <       0.20856916 Ry

     iteration #  2     ecut=    50.00 Ry     beta= 0.70
     Davidson diagonalization with overlap
     ethr =  9.48E-04,  avg # of iterations =  2.2

     total cpu time spent up to now is     5367.6 secs

     total energy              =    -202.62924761 Ry
     Harris-Foulkes estimate   =    -202.95550474 Ry
     estimated scf accuracy    <       0.88718832 Ry

     iteration #  3     ecut=    50.00 Ry     beta= 0.70
     Davidson diagonalization with overlap
     ethr =  9.48E-04,  avg # of iterations =  2.3

     total cpu time spent up to now is     5380.6 secs

     total energy              =    -202.79025459 Ry
     Harris-Foulkes estimate   =    -202.83286505 Ry
     estimated scf accuracy    <       0.11941586 Ry

     iteration #  4     ecut=    50.00 Ry     beta= 0.70
     Davidson diagonalization with overlap
     ethr =  5.43E-04,  avg # of iterations =  1.8

     total cpu time spent up to now is     5391.7 secs

     total energy              =    -202.80453255 Ry
     Harris-Foulkes estimate   =    -202.80522176 Ry
     estimated scf accuracy    <       0.00191545 Ry

     iteration #  5     ecut=    50.00 Ry     beta= 0.70
     Davidson diagonalization with overlap
     ethr =  8.71E-06,  avg # of iterations =  3.0

     total cpu time spent up to now is     5406.4 secs

     total energy              =    -202.80560092 Ry
     Harris-Foulkes estimate   =    -202.80563853 Ry
     estimated scf accuracy    <       0.00019582 Ry

     iteration #  6     ecut=    50.00 Ry     beta= 0.70
     Davidson diagonalization with overlap
     ethr =  8.90E-07,  avg # of iterations =  1.0

     total cpu time spent up to now is     5417.0 secs

     total energy              =    -202.80560711 Ry
     Harris-Foulkes estimate   =    -202.80561371 Ry
     estimated scf accuracy    <       0.00002293 Ry

     iteration #  7     ecut=    50.00 Ry     beta= 0.70
     Davidson diagonalization with overlap
     ethr =  1.04E-07,  avg # of iterations =  2.0

     total cpu time spent up to now is     5428.6 secs

     total energy              =    -202.80561012 Ry
     Harris-Foulkes estimate   =    -202.80561023 Ry
     estimated scf accuracy    <       0.00000042 Ry

     iteration #  8     ecut=    50.00 Ry     beta= 0.70
     Davidson diagonalization with overlap
     ethr =  1.89E-09,  avg # of iterations =  3.0

     total cpu time spent up to now is     5443.7 secs

     total energy              =    -202.80561033 Ry
     Harris-Foulkes estimate   =    -202.80561033 Ry
     estimated scf accuracy    <       0.00000002 Ry

     iteration #  9     ecut=    50.00 Ry     beta= 0.70
     Davidson diagonalization with overlap
     ethr =  7.01E-11,  avg # of iterations =  2.0

     total cpu time spent up to now is     5456.0 secs

     total energy              =    -202.80561033 Ry
     Harris-Foulkes estimate   =    -202.80561033 Ry
     estimated scf accuracy    <       0.00000002 Ry

     iteration # 10     ecut=    50.00 Ry     beta= 0.70
     Davidson diagonalization with overlap
     ethr =  7.01E-11,  avg # of iterations =  1.1

     total cpu time spent up to now is     5466.9 secs

     total energy              =    -202.80561033 Ry
     Harris-Foulkes estimate   =    -202.80561033 Ry
     estimated scf accuracy    <          7.3E-10 Ry

     iteration # 11     ecut=    50.00 Ry     beta= 0.70
     Davidson diagonalization with overlap
     ethr =  3.31E-12,  avg # of iterations =  2.0

     total cpu time spent up to now is     5479.3 secs

     End of self-consistent calculation

     Number of k-points >= 100: set verbosity='high' to print the bands.

     the Fermi energy is    14.2972 ev

!    total energy              =    -202.80561033 Ry
     Harris-Foulkes estimate   =    -202.80561033 Ry
     estimated scf accuracy    <          2.2E-12 Ry

     The total energy is the sum of the following terms:

     one-electron contribution =     -18.47999285 Ry
     hartree contribution      =      38.72088114 Ry
     xc contribution           =     -72.49786650 Ry
     ewald contribution        =    -150.54880231 Ry
     smearing contrib. (-TS)   =       0.00017019 Ry

     convergence has been achieved in  11 iterations

     Forces acting on atoms (cartesian axes, Ry/au):

     atom    1 type  1   force =     0.00000000    0.00000000    0.00000000
     atom    2 type  2   force =     0.00000000    0.00000000    0.00000000

     Total force =     0.000000     Total SCF correction =     0.000000


     Computing stress (Cartesian axis) and pressure

          total   stress  (Ry/bohr**3)                   (kbar)     P=   53.59
   0.00038303  -0.00037424  -0.00033405         56.35    -55.05    -49.14
  -0.00037424   0.00038303   0.00033405        -55.05     56.35     49.14
  -0.00033405   0.00033405   0.00032675        -49.14     49.14     48.07


     Writing output data file CuAu_L10.save/
 
     init_run     :     16.93s CPU     17.33s WALL (       2 calls)
     electrons    :   5098.10s CPU   5166.39s WALL (      23 calls)
     update_pot   :     48.34s CPU     48.41s WALL (      21 calls)
     forces       :     65.07s CPU     65.35s WALL (      23 calls)
     stress       :    180.95s CPU    182.68s WALL (      23 calls)

     Called by init_run:
     wfcinit      :     10.82s CPU     10.97s WALL (       2 calls)
     potinit      :      0.67s CPU      0.68s WALL (       2 calls)
     hinit0       :      5.11s CPU      5.14s WALL (       2 calls)

     Called by electrons:
     c_bands      :   4201.07s CPU   4245.82s WALL (     309 calls)
     sum_band     :    828.12s CPU    837.86s WALL (     309 calls)
     v_of_rho     :     16.69s CPU     17.24s WALL (     329 calls)
     newd         :     55.24s CPU     68.07s WALL (     329 calls)
     mix_rho      :      1.26s CPU      1.58s WALL (     309 calls)

     Called by c_bands:
     init_us_2    :    170.83s CPU    173.80s WALL (  317016 calls)
     cegterg      :   3721.27s CPU   3761.76s WALL (  147084 calls)

     Called by sum_band:
     sum_band:bec :      1.25s CPU      1.27s WALL (  147084 calls)
     addusdens    :     61.41s CPU     66.07s WALL (     309 calls)

     Called by *egterg:
     h_psi        :   3182.32s CPU   3201.63s WALL (  462390 calls)
     s_psi        :     71.37s CPU     72.03s WALL (  462390 calls)
     g_psi        :     35.27s CPU     35.87s WALL (  314354 calls)
     cdiaghg      :    179.75s CPU    195.40s WALL (  450014 calls)

     Called by h_psi:
     h_psi:pot    :   3172.04s CPU   3191.13s WALL (  462390 calls)
     h_psi:calbec :     75.81s CPU     76.30s WALL (  462390 calls)
     vloc_psi     :   3022.46s CPU   3040.70s WALL (  462390 calls)
     add_vuspsi   :     71.52s CPU     72.18s WALL (  462390 calls)

     General routines
     calbec       :    113.92s CPU    114.75s WALL (  664214 calls)
     fft          :      5.10s CPU      5.14s WALL (    4830 calls)
     ffts         :      0.15s CPU      0.16s WALL (     638 calls)
     fftw         :   3221.26s CPU   3240.57s WALL (13255610 calls)
     interpolate  :      0.49s CPU      0.51s WALL (     329 calls)
 
     Parallel routines
 
     PWSCF        :      1h30m CPU      1h31m WALL

 
   This run was terminated on:  20:26:57  15May2020            

=------------------------------------------------------------------------------=
   JOB DONE.
=------------------------------------------------------------------------------=
