
     Program PWSCF v.6.4.1 starts on 14May2020 at  1: 7: 0 

     This program is part of the open-source Quantum ESPRESSO suite
     for quantum simulation of materials; please cite
         "P. Giannozzi et al., J. Phys.:Condens. Matter 21 395502 (2009);
         "P. Giannozzi et al., J. Phys.:Condens. Matter 29 465901 (2017);
          URL http://www.quantum-espresso.org", 
     in publications or presentations arising from this work. More details at
     http://www.quantum-espresso.org/quote

     Parallel version (MPI), running on     1 processors

     MPI processes distributed on     1 nodes
     Reading input from PTO_7.49_10_0.455.pw.in
Warning: card  &CELL ignored
Warning: card   CELL_DYNAMICS = 'BFGS', ignored
Warning: card  / ignored

     Current dimensions of program PWSCF are:
     Max number of different atomic species (ntypx) = 10
     Max number of k-points (npk) =  40000
     Max angular momentum in pseudopotentials (lmaxx) =  3
     Message from routine read_upf::
     Pseudo file Pb.pbe-dn-rrkjus_psl.0.2.2.UPF has been fixed on the fly.
To avoid this message in the future, permanently fix 
 your pseudo files following these instructions: 
https://gitlab.com/QEF/q-e/blob/master/upftools/how_to_fix_upf.md
     Message from routine read_upf::
     Pseudo file O.pbe-n-rrkjus_psl.0.1.UPF has been fixed on the fly.
To avoid this message in the future, permanently fix 
 your pseudo files following these instructions: 
https://gitlab.com/QEF/q-e/blob/master/upftools/how_to_fix_upf.md
               file Pb.pbe-dn-rrkjus_psl.0.2.2.UPF: wavefunction(s)  6S renormalized

     Subspace diagonalization in iterative solution of the eigenvalue problem:
     a serial algorithm will be used


     G-vector sticks info
     --------------------
     sticks:   dense  smooth     PW     G-vecs:    dense   smooth      PW
     Sum        3569    1433    421               160467    40651    6235



     bravais-lattice index     =            1
     lattice parameter (alat)  =       7.4900  a.u.
     unit-cell volume          =     420.1897 (a.u.)^3
     number of atoms/cell      =            5
     number of atomic types    =            3
     number of electrons       =        44.00
     number of Kohn-Sham states=           26
     kinetic-energy cutoff     =      80.0000  Ry
     charge density cutoff     =     800.0000  Ry
     convergence threshold     =      1.0E-08
     mixing beta               =       0.7000
     number of iterations used =            8  plain     mixing
     Exchange-correlation      = PBE ( 1  4  3  4 0 0)
     nstep                     =           50


     celldm(1)=   7.490000  celldm(2)=   0.000000  celldm(3)=   0.000000
     celldm(4)=   0.000000  celldm(5)=   0.000000  celldm(6)=   0.000000

     crystal axes: (cart. coord. in units of alat)
               a(1) = (   1.000000   0.000000   0.000000 )  
               a(2) = (   0.000000   1.000000   0.000000 )  
               a(3) = (   0.000000   0.000000   1.000000 )  

     reciprocal axes: (cart. coord. in units 2 pi/alat)
               b(1) = (  1.000000  0.000000  0.000000 )  
               b(2) = (  0.000000  1.000000  0.000000 )  
               b(3) = (  0.000000  0.000000  1.000000 )  


     PseudoPot. # 1 for Pb read from file:
     ./Pb.pbe-dn-rrkjus_psl.0.2.2.UPF
     MD5 check sum: 7afc420059c37d6888fc09c0f121e83f
     Pseudo is Ultrasoft + core correction, Zval = 14.0
     Generated using "atomic" code by A. Dal Corso v.5.0.2 svn rev. 9415
     Using radial grid of 1281 points,  6 beta functions with: 
                l(1) =   0
                l(2) =   0
                l(3) =   1
                l(4) =   1
                l(5) =   2
                l(6) =   2
     Q(r) pseudized with 0 coefficients 


     PseudoPot. # 2 for Ti read from file:
     ./Ti.pbe-sp-van_ak.UPF
     MD5 check sum: 8e4df49b7f0d34bbd5052bf3f5ea0213
     Pseudo is Ultrasoft, Zval = 12.0
     Generated by new atomic code, or converted to UPF format
     Using radial grid of  851 points,  6 beta functions with: 
                l(1) =   0
                l(2) =   0
                l(3) =   1
                l(4) =   1
                l(5) =   2
                l(6) =   2
     Q(r) pseudized with  8 coefficients,  rinner =    1.000   1.000   1.000
                                                       1.000   1.000

     PseudoPot. # 3 for O  read from file:
     ./O.pbe-n-rrkjus_psl.0.1.UPF
     MD5 check sum: e057bbcf3229fb5d8c36c0c92f9568b4
     Pseudo is Ultrasoft + core correction, Zval =  6.0
     Generated using "atomic" code by A. Dal Corso v.5.0.2 svn rev. 9415
     Using radial grid of 1095 points,  4 beta functions with: 
                l(1) =   0
                l(2) =   0
                l(3) =   1
                l(4) =   1
     Q(r) pseudized with 0 coefficients 


     atomic species   valence    mass     pseudopotential
        Pb            14.00   207.20000     Pb( 1.00)
        Ti            12.00    47.87000     Ti( 1.00)
        O              6.00    16.00000     O ( 1.00)

      8 Sym. Ops. (no inversion) found



   Cartesian axes

     site n.     atom                  positions (alat units)
         1           Pb  tau(   1) = (   0.0000000   0.0000000   0.0000000  )
         2           Ti  tau(   2) = (   0.5000000   0.4550000   0.5000000  )
         3           O   tau(   3) = (   0.5000000   0.5000000   0.0000000  )
         4           O   tau(   4) = (   0.5000000   0.0000000   0.5000000  )
         5           O   tau(   5) = (   0.0000000   0.5000000   0.5000000  )

     number of k points=    75  Marzari-Vanderbilt smearing, width (Ry)=  0.0250
                       cart. coord. in units 2pi/alat
        k(    1) = (   0.0500000   0.0500000   0.0500000), wk =   0.0160000
        k(    2) = (   0.0500000   0.0500000   0.1500000), wk =   0.0320000
        k(    3) = (   0.0500000   0.0500000   0.2500000), wk =   0.0320000
        k(    4) = (   0.0500000   0.0500000   0.3500000), wk =   0.0320000
        k(    5) = (   0.0500000   0.0500000   0.4500000), wk =   0.0320000
        k(    6) = (   0.0500000   0.1500000   0.1500000), wk =   0.0320000
        k(    7) = (   0.0500000   0.1500000   0.2500000), wk =   0.0320000
        k(    8) = (   0.0500000   0.1500000   0.3500000), wk =   0.0320000
        k(    9) = (   0.0500000   0.1500000   0.4500000), wk =   0.0320000
        k(   10) = (   0.0500000   0.2500000   0.2500000), wk =   0.0320000
        k(   11) = (   0.0500000   0.2500000   0.3500000), wk =   0.0320000
        k(   12) = (   0.0500000   0.2500000   0.4500000), wk =   0.0320000
        k(   13) = (   0.0500000   0.3500000   0.3500000), wk =   0.0320000
        k(   14) = (   0.0500000   0.3500000   0.4500000), wk =   0.0320000
        k(   15) = (   0.0500000   0.4500000   0.4500000), wk =   0.0320000
        k(   16) = (   0.1500000   0.1500000   0.1500000), wk =   0.0160000
        k(   17) = (   0.1500000   0.1500000   0.2500000), wk =   0.0320000
        k(   18) = (   0.1500000   0.1500000   0.3500000), wk =   0.0320000
        k(   19) = (   0.1500000   0.1500000   0.4500000), wk =   0.0320000
        k(   20) = (   0.1500000   0.2500000   0.2500000), wk =   0.0320000
        k(   21) = (   0.1500000   0.2500000   0.3500000), wk =   0.0320000
        k(   22) = (   0.1500000   0.2500000   0.4500000), wk =   0.0320000
        k(   23) = (   0.1500000   0.3500000   0.3500000), wk =   0.0320000
        k(   24) = (   0.1500000   0.3500000   0.4500000), wk =   0.0320000
        k(   25) = (   0.1500000   0.4500000   0.4500000), wk =   0.0320000
        k(   26) = (   0.2500000   0.2500000   0.2500000), wk =   0.0160000
        k(   27) = (   0.2500000   0.2500000   0.3500000), wk =   0.0320000
        k(   28) = (   0.2500000   0.2500000   0.4500000), wk =   0.0320000
        k(   29) = (   0.2500000   0.3500000   0.3500000), wk =   0.0320000
        k(   30) = (   0.2500000   0.3500000   0.4500000), wk =   0.0320000
        k(   31) = (   0.2500000   0.4500000   0.4500000), wk =   0.0320000
        k(   32) = (   0.3500000   0.3500000   0.3500000), wk =   0.0160000
        k(   33) = (   0.3500000   0.3500000   0.4500000), wk =   0.0320000
        k(   34) = (   0.3500000   0.4500000   0.4500000), wk =   0.0320000
        k(   35) = (   0.4500000   0.4500000   0.4500000), wk =   0.0160000
        k(   36) = (  -0.0500000   0.1500000   0.0500000), wk =   0.0160000
        k(   37) = (  -0.0500000   0.2500000   0.0500000), wk =   0.0160000
        k(   38) = (  -0.0500000   0.3500000   0.0500000), wk =   0.0160000
        k(   39) = (  -0.0500000   0.4500000   0.0500000), wk =   0.0160000
        k(   40) = (   0.1500000   0.0500000   0.1500000), wk =   0.0160000
        k(   41) = (  -0.0500000   0.2500000   0.1500000), wk =   0.0320000
        k(   42) = (   0.2500000   0.0500000   0.1500000), wk =   0.0320000
        k(   43) = (  -0.0500000   0.3500000   0.1500000), wk =   0.0320000
        k(   44) = (   0.3500000   0.0500000   0.1500000), wk =   0.0320000
        k(   45) = (  -0.0500000   0.4500000   0.1500000), wk =   0.0320000
        k(   46) = (   0.4500000   0.0500000   0.1500000), wk =   0.0320000
        k(   47) = (   0.2500000   0.0500000   0.2500000), wk =   0.0160000
        k(   48) = (  -0.0500000   0.3500000   0.2500000), wk =   0.0320000
        k(   49) = (   0.3500000   0.0500000   0.2500000), wk =   0.0320000
        k(   50) = (  -0.0500000   0.4500000   0.2500000), wk =   0.0320000
        k(   51) = (   0.4500000   0.0500000   0.2500000), wk =   0.0320000
        k(   52) = (   0.3500000   0.0500000   0.3500000), wk =   0.0160000
        k(   53) = (  -0.0500000   0.4500000   0.3500000), wk =   0.0320000
        k(   54) = (   0.4500000   0.0500000   0.3500000), wk =   0.0320000
        k(   55) = (   0.4500000   0.0500000   0.4500000), wk =   0.0160000
        k(   56) = (  -0.1500000   0.2500000   0.1500000), wk =   0.0160000
        k(   57) = (  -0.1500000   0.3500000   0.1500000), wk =   0.0160000
        k(   58) = (  -0.1500000   0.4500000   0.1500000), wk =   0.0160000
        k(   59) = (   0.2500000   0.1500000   0.2500000), wk =   0.0160000
        k(   60) = (  -0.1500000   0.3500000   0.2500000), wk =   0.0320000
        k(   61) = (   0.3500000   0.1500000   0.2500000), wk =   0.0320000
        k(   62) = (  -0.1500000   0.4500000   0.2500000), wk =   0.0320000
        k(   63) = (   0.4500000   0.1500000   0.2500000), wk =   0.0320000
        k(   64) = (   0.3500000   0.1500000   0.3500000), wk =   0.0160000
        k(   65) = (  -0.1500000   0.4500000   0.3500000), wk =   0.0320000
        k(   66) = (   0.4500000   0.1500000   0.3500000), wk =   0.0320000
        k(   67) = (   0.4500000   0.1500000   0.4500000), wk =   0.0160000
        k(   68) = (  -0.2500000   0.3500000   0.2500000), wk =   0.0160000
        k(   69) = (  -0.2500000   0.4500000   0.2500000), wk =   0.0160000
        k(   70) = (   0.3500000   0.2500000   0.3500000), wk =   0.0160000
        k(   71) = (  -0.2500000   0.4500000   0.3500000), wk =   0.0320000
        k(   72) = (   0.4500000   0.2500000   0.3500000), wk =   0.0320000
        k(   73) = (   0.4500000   0.2500000   0.4500000), wk =   0.0160000
        k(   74) = (  -0.3500000   0.4500000   0.3500000), wk =   0.0160000
        k(   75) = (   0.4500000   0.3500000   0.4500000), wk =   0.0160000

     Dense  grid:   160467 G-vectors     FFT dimensions: (  72,  72,  72)

     Smooth grid:    40651 G-vectors     FFT dimensions: (  45,  45,  45)

     Estimated max dynamical RAM per process >     759.22 MB

     Check: negative core charge=   -0.000006

     Initial potential from superposition of free atoms

     starting charge   42.99760, renormalised to   44.00000
     Starting wfcs are   31 randomized atomic wfcs

     total cpu time spent up to now is       16.5 secs

     Self-consistent Calculation

     iteration #  1     ecut=    80.00 Ry     beta= 0.70
     Davidson diagonalization with overlap
     ethr =  1.00E-02,  avg # of iterations =  2.0

     total cpu time spent up to now is       47.1 secs

     total energy              =    -364.40162161 Ry
     Harris-Foulkes estimate   =    -365.28781999 Ry
     estimated scf accuracy    <       1.11232458 Ry

     iteration #  2     ecut=    80.00 Ry     beta= 0.70
     Davidson diagonalization with overlap
     ethr =  2.53E-03,  avg # of iterations =  4.0

     total cpu time spent up to now is       92.3 secs

     total energy              =    -363.34860697 Ry
     Harris-Foulkes estimate   =    -365.76369826 Ry
     estimated scf accuracy    <       8.93888778 Ry

     iteration #  3     ecut=    80.00 Ry     beta= 0.70
     Davidson diagonalization with overlap
     ethr =  2.53E-03,  avg # of iterations =  5.0

     total cpu time spent up to now is      138.5 secs

     total energy              =    -364.93111873 Ry
     Harris-Foulkes estimate   =    -365.09967096 Ry
     estimated scf accuracy    <       0.45800022 Ry

     iteration #  4     ecut=    80.00 Ry     beta= 0.70
     Davidson diagonalization with overlap
     ethr =  1.04E-03,  avg # of iterations =  3.0

     total cpu time spent up to now is      168.4 secs

     total energy              =    -364.91657610 Ry
     Harris-Foulkes estimate   =    -364.96494362 Ry
     estimated scf accuracy    <       0.16583686 Ry

     iteration #  5     ecut=    80.00 Ry     beta= 0.70
     Davidson diagonalization with overlap
     ethr =  3.77E-04,  avg # of iterations =  4.4

     total cpu time spent up to now is      206.6 secs

     total energy              =    -364.95443899 Ry
     Harris-Foulkes estimate   =    -364.95461717 Ry
     estimated scf accuracy    <       0.00114761 Ry

     iteration #  6     ecut=    80.00 Ry     beta= 0.70
     Davidson diagonalization with overlap
     c_bands:  1 eigenvalues not converged
     ethr =  2.61E-06,  avg # of iterations =  4.9

     total cpu time spent up to now is      256.4 secs

     total energy              =    -364.95481265 Ry
     Harris-Foulkes estimate   =    -364.95520232 Ry
     estimated scf accuracy    <       0.00174847 Ry

     iteration #  7     ecut=    80.00 Ry     beta= 0.70
     Davidson diagonalization with overlap
     ethr =  2.61E-06,  avg # of iterations =  2.6

     total cpu time spent up to now is      286.9 secs

     total energy              =    -364.95475591 Ry
     Harris-Foulkes estimate   =    -364.95499918 Ry
     estimated scf accuracy    <       0.00064711 Ry

     iteration #  8     ecut=    80.00 Ry     beta= 0.70
     Davidson diagonalization with overlap
     ethr =  1.47E-06,  avg # of iterations =  3.5

     total cpu time spent up to now is      320.0 secs

     total energy              =    -364.95488566 Ry
     Harris-Foulkes estimate   =    -364.95489657 Ry
     estimated scf accuracy    <       0.00004212 Ry

     iteration #  9     ecut=    80.00 Ry     beta= 0.70
     Davidson diagonalization with overlap
     ethr =  9.57E-08,  avg # of iterations =  2.7

     total cpu time spent up to now is      353.7 secs

     total energy              =    -364.95488180 Ry
     Harris-Foulkes estimate   =    -364.95489327 Ry
     estimated scf accuracy    <       0.00003006 Ry

     iteration # 10     ecut=    80.00 Ry     beta= 0.70
     Davidson diagonalization with overlap
     ethr =  6.83E-08,  avg # of iterations =  2.5

     total cpu time spent up to now is      383.8 secs

     total energy              =    -364.95488567 Ry
     Harris-Foulkes estimate   =    -364.95488597 Ry
     estimated scf accuracy    <       0.00000102 Ry

     iteration # 11     ecut=    80.00 Ry     beta= 0.70
     Davidson diagonalization with overlap
     ethr =  2.31E-09,  avg # of iterations =  3.9

     total cpu time spent up to now is      426.2 secs

     total energy              =    -364.95488634 Ry
     Harris-Foulkes estimate   =    -364.95488636 Ry
     estimated scf accuracy    <       0.00000009 Ry

     iteration # 12     ecut=    80.00 Ry     beta= 0.70
     Davidson diagonalization with overlap
     ethr =  1.95E-10,  avg # of iterations =  2.0

     total cpu time spent up to now is      455.0 secs

     total energy              =    -364.95488634 Ry
     Harris-Foulkes estimate   =    -364.95488635 Ry
     estimated scf accuracy    <       0.00000003 Ry

     iteration # 13     ecut=    80.00 Ry     beta= 0.70
     Davidson diagonalization with overlap
     ethr =  6.04E-11,  avg # of iterations =  3.0

     total cpu time spent up to now is      488.3 secs

     End of self-consistent calculation

          k = 0.0500 0.0500 0.0500 (  5047 PWs)   bands (ev):

   -46.0820 -22.4162 -22.3254 -22.3253  -7.2246  -6.2395  -6.1324  -5.0591
    -5.0430  -5.0427  -4.9055  -4.8911   4.4604   6.8161   6.8592   6.9987
     8.7849   8.8108   9.1665   9.2750   9.5201   9.5298  12.4992  12.9330
    12.9400  14.6956

          k = 0.0500 0.0500 0.1500 (  5074 PWs)   bands (ev):

   -46.0818 -22.4158 -22.3360 -22.3250  -7.1434  -6.2054  -6.1026  -5.0668
    -5.0507  -5.0423  -4.9360  -4.8898   4.1643   6.8706   6.9397   7.1765
     8.5736   8.7459   9.1158   9.1788   9.3787   9.5124  12.8170  12.9418
    13.0460  14.8830

          k = 0.0500 0.0500 0.2500 (  5093 PWs)   bands (ev):

   -46.0815 -22.4151 -22.3532 -22.3244  -7.0080  -6.1452  -6.0550  -5.0798
    -5.0634  -5.0414  -4.9925  -4.8848   3.7960   6.8785   7.0505   7.1948
     8.4421   8.5339   9.0335   9.1079   9.3103   9.5803  12.9421  13.2807
    13.3816  14.8862

          k = 0.0500 0.0500 0.3500 (  5090 PWs)   bands (ev):

   -46.0811 -22.4145 -22.3702 -22.3237  -6.8668  -6.0753  -6.0109  -5.0990
    -5.0775  -5.0471  -5.0405  -4.8817   3.5077   6.5287   7.2300   7.3560
     8.1680   8.2790   8.9708   9.0462   9.4160   9.9514  12.9430  13.7005
    13.7826  14.2663

          k = 0.0500 0.0500 0.4500 (  5073 PWs)   bands (ev):

   -46.0809 -22.4140 -22.3808 -22.3234  -6.7762  -6.0196  -5.9919  -5.1267
    -5.0877  -5.0677  -5.0400  -4.8810   3.3578   6.2465   7.4162   7.6072
     7.8877   7.9786   8.9376   9.0474   9.4691  10.3923  12.9303  13.5510
    13.9488  14.0552

          k = 0.0500 0.1500 0.1500 (  5079 PWs)   bands (ev):

   -46.0816 -22.4267 -22.3356 -22.3246  -7.0508  -6.1835  -6.0750  -5.0672
    -5.0612  -5.0492  -4.9278  -4.9102   3.9427   6.8258   6.9316   7.3469
     8.3402   8.5688   8.9601   9.2329   9.3350   9.5975  12.8178  13.1963
    13.2757  14.9991

          k = 0.0500 0.1500 0.2500 (  5077 PWs)   bands (ev):

   -46.0812 -22.4260 -22.3527 -22.3240  -6.9199  -6.1311  -6.0344  -5.0840
    -5.0702  -5.0486  -4.9591  -4.9012   3.6480   6.7831   7.0495   7.2818
     8.1795   8.3979   8.8358   9.0964   9.2808   9.7564  13.1846  13.2900
    13.5530  15.0501

          k = 0.0500 0.1500 0.3500 (  5080 PWs)   bands (ev):

   -46.0809 -22.4253 -22.3697 -22.3233  -6.7858  -6.0775  -5.9894  -5.1034
    -5.0791  -5.0482  -4.9863  -4.8975   3.4011   6.5130   7.1556   7.3345
     7.9347   8.2332   8.7819   9.0915   9.2630  10.0036  13.1886  13.6951
    13.9018  14.4310

          k = 0.0500 0.1500 0.4500 (  5079 PWs)   bands (ev):

   -46.0807 -22.4248 -22.3802 -22.3229  -6.7014  -6.0440  -5.9585  -5.1187
    -5.0873  -5.0479  -4.9953  -4.8998   3.2681   6.2503   7.2677   7.4956
     7.7660   7.9726   8.8177   9.1540   9.2346  10.2027  13.1706  13.9267
    13.9570  14.1464

          k = 0.0500 0.2500 0.2500 (  5076 PWs)   bands (ev):

   -46.0809 -22.4434 -22.3520 -22.3233  -6.7764  -6.1112  -5.9912  -5.0886
    -5.0740  -5.0563  -4.9346  -4.9147   3.4238   6.6534   7.0588   7.1910
     7.9639   8.1155   8.6051   9.0670   9.4615   9.9004  13.2624  13.5924
    13.8283  15.0054

          k = 0.0500 0.2500 0.3500 (  5080 PWs)   bands (ev):

   -46.0806 -22.4427 -22.3689 -22.3226  -6.6638  -6.0770  -5.9361  -5.0983
    -5.0782  -5.0576  -4.9450  -4.8933   3.2322   6.4754   6.9392   7.2640
     7.7473   8.0856   8.5049   8.8939   9.5712   9.9115  13.5625  13.6919
    14.0899  14.7224

          k = 0.0500 0.2500 0.4500 (  5084 PWs)   bands (ev):

   -46.0803 -22.4422 -22.3794 -22.3223  -6.5991  -6.0540  -5.8937  -5.1050
    -5.0858  -5.0588  -4.9381  -4.8897   3.1236   6.2478   6.9651   7.2603
     7.6601   8.0833   8.4433   8.8872   9.5895   9.8830  13.5644  13.9201
    14.2860  14.5365

          k = 0.0500 0.3500 0.3500 (  5079 PWs)   bands (ev):

   -46.0802 -22.4600 -22.3681 -22.3220  -6.5655  -6.0411  -5.8765  -5.0970
    -5.0809  -5.0604  -4.9675  -4.8353   3.0689   6.2976   6.6752   7.2595
     7.6581   7.9470   8.3870   8.8272   9.5577   9.9440  13.6540  13.9634
    14.2846  15.0321

          k = 0.0500 0.3500 0.4500 (  5079 PWs)   bands (ev):

   -46.0800 -22.4594 -22.3785 -22.3216  -6.5359  -6.0072  -5.8220  -5.0983
    -5.0844  -5.0636  -4.9756  -4.8009   2.9811   6.1795   6.5384   7.3187
     7.4883   8.1205   8.2913   8.7096   9.3629  10.0189  13.8917  13.9594
    14.4483  15.0936

          k = 0.0500 0.4500 0.4500 (  5100 PWs)   bands (ev):

   -46.0798 -22.4701 -22.3780 -22.3211  -6.5194  -5.9470  -5.7734  -5.1006
    -5.0837  -5.0641  -4.9996  -4.7498   2.8944   5.9970   6.4204   7.3109
     7.4527   8.0689   8.3405   8.6331   9.0479  10.1955  13.8775  14.1958
    14.5611  15.4530

          k = 0.1500 0.1500 0.1500 (  5095 PWs)   bands (ev):

   -46.0814 -22.4262 -22.3353 -22.3350  -6.9747  -6.1587  -6.0518  -5.0757
    -5.0668  -5.0486  -4.9243  -4.9115   3.7943   6.7993   6.8485   7.4581
     8.1886   8.3291   8.9354   9.2961   9.4259   9.4779  13.0435  13.2587
    13.2906  15.4892

          k = 0.1500 0.1500 0.2500 (  5084 PWs)   bands (ev):

   -46.0810 -22.4255 -22.3523 -22.3345  -6.8517  -6.1169  -6.0119  -5.0905
    -5.0679  -5.0449  -4.9410  -4.9013   3.5691   6.7424   6.8421   7.3078
     7.9672   8.1373   8.9567   9.2160   9.3873   9.6627  13.2239  13.4179
    13.5477  15.1422

          k = 0.1500 0.1500 0.3500 (  5082 PWs)   bands (ev):

   -46.0807 -22.4249 -22.3693 -22.3339  -6.7299  -6.0726  -5.9677  -5.1033
    -5.0608  -5.0386  -4.9644  -4.8975   3.3646   6.5124   6.8460   7.1889
     7.7641   8.1882   8.7089   9.2657   9.3992   9.8740  13.1660  13.7477
    13.8910  14.6352

          k = 0.1500 0.1500 0.4500 (  5084 PWs)   bands (ev):

   -46.0805 -22.4244 -22.3797 -22.3335  -6.6563  -6.0440  -5.9365  -5.1085
    -5.0554  -5.0311  -4.9808  -4.9010   3.2494   6.2563   6.8425   7.2362
     7.6693   8.3024   8.4621   9.3356   9.3851   9.9815  13.1011  13.9657
    14.1285  14.3926

          k = 0.1500 0.2500 0.2500 (  5081 PWs)   bands (ev):

   -46.0807 -22.4430 -22.3515 -22.3338  -6.7057  -6.1025  -5.9936  -5.0926
    -5.0770  -5.0315  -4.9156  -4.8971   3.4168   6.5954   6.7134   7.1334
     7.6745   7.9562   8.8896   9.2548   9.5043   9.7495  13.3007  13.5917
    13.7805  14.9446

          k = 0.1500 0.2500 0.3500 (  5080 PWs)   bands (ev):

   -46.0803 -22.4422 -22.3685 -22.3332  -6.5980  -6.0858  -5.9450  -5.0956
    -5.0666  -5.0210  -4.9184  -4.8777   3.2760   6.4495   6.6703   6.8961
     7.3837   8.0018   8.9115   9.0949   9.5723   9.7526  13.4171  13.7219
    14.0273  14.9018

          k = 0.1500 0.2500 0.4500 (  5077 PWs)   bands (ev):

   -46.0801 -22.4418 -22.3789 -22.3328  -6.5373  -6.0785  -5.9033  -5.0945
    -5.0571  -5.0175  -4.9122  -4.8761   3.1906   6.2473   6.6327   6.8291
     7.2984   8.0990   8.7222   9.1827   9.5068   9.7381  13.4203  13.9091
    14.2264  14.9362

          k = 0.1500 0.3500 0.3500 (  5081 PWs)   bands (ev):

   -46.0800 -22.4595 -22.3677 -22.3325  -6.4877  -6.0687  -5.9202  -5.0920
    -5.0594  -5.0004  -4.9257  -4.8198   3.1732   6.2619   6.5765   6.6620
     7.0853   7.9705   8.7838   9.1087   9.4018   9.9041  13.5655  13.8844
    14.1968  15.2043

          k = 0.1500 0.3500 0.4500 (  5079 PWs)   bands (ev):

   -46.0798 -22.4590 -22.3781 -22.3321  -6.4574  -6.0579  -5.8701  -5.0878
    -5.0410  -5.0034  -4.9283  -4.7856   3.1154   6.1655   6.4659   6.6288
     6.8956   8.0391   8.7215   9.0282   9.1893  10.0100  13.7870  13.8962
    14.3490  15.4316

          k = 0.1500 0.4500 0.4500 (  5073 PWs)   bands (ev):

   -46.0796 -22.4696 -22.3776 -22.3316  -6.4368  -6.0090  -5.8505  -5.0850
    -5.0213  -4.9869  -4.9529  -4.7331   3.0618   5.9782   6.3814   6.6263
     6.7487   8.0417   8.4730   8.9346   9.1293  10.1789  13.8589  14.0802
    14.4512  15.7677

          k = 0.2500 0.2500 0.2500 (  5070 PWs)   bands (ev):

   -46.0803 -22.4423 -22.3510 -22.3507  -6.5999  -6.0865  -5.9885  -5.0818
    -5.0778  -5.0006  -4.8923  -4.8709   3.3868   6.4145   6.4917   6.9857
     7.4458   7.5234   9.0666   9.4961   9.5118   9.6535  13.3057  13.7483
    13.7556  14.9712

          k = 0.2500 0.2500 0.3500 (  5072 PWs)   bands (ev):

   -46.0800 -22.4415 -22.3677 -22.3501  -6.5107  -6.0764  -5.9574  -5.0763
    -5.0616  -4.9640  -4.8750  -4.8526   3.3352   6.2758   6.3508   6.6552
     7.1791   7.4886   8.9171   9.4446   9.5495   9.7940  13.3750  13.8089
    14.0116  15.1733

          k = 0.2500 0.2500 0.4500 (  5073 PWs)   bands (ev):

   -46.0798 -22.4411 -22.3781 -22.3497  -6.4669  -6.0760  -5.9191  -5.0722
    -5.0497  -4.9284  -4.8713  -4.8484   3.2944   6.1756   6.2505   6.4486
     7.1167   7.5301   8.6861   9.4707   9.5096   9.8528  13.4763  13.9023
    14.2083  15.4237

          k = 0.2500 0.3500 0.3500 (  5057 PWs)   bands (ev):

   -46.0797 -22.4588 -22.3670 -22.3494  -6.3741  -6.0958  -5.9797  -5.0685
    -5.0429  -4.9230  -4.8504  -4.7903   3.3537   6.0367   6.1789   6.4401
     6.8536   7.3709   8.4604   9.5251   9.7037   9.9006  13.5310  13.9418
    14.1441  15.5071

          k = 0.2500 0.3500 0.4500 (  5063 PWs)   bands (ev):

   -46.0794 -22.4583 -22.3774 -22.3490  -6.3438  -6.1113  -5.9366  -5.0618
    -5.0265  -4.8958  -4.8398  -4.7564   3.3641   6.0208   6.0593   6.2379
     6.6751   7.3962   8.1024   9.5464   9.6929  10.0136  13.7666  13.9367
    14.2907  15.8497

          k = 0.2500 0.4500 0.4500 (  5070 PWs)   bands (ev):

   -46.0792 -22.4689 -22.3769 -22.3486  -6.3033  -6.0913  -5.9479  -5.0574
    -5.0083  -4.8743  -4.8226  -4.7016   3.3918   5.8450   6.0658   6.1154
     6.4783   7.3717   7.6432   9.5426   9.7373  10.1628  13.9152  14.0626
    14.3832  16.1868

          k = 0.3500 0.3500 0.3500 (  5055 PWs)   bands (ev):

   -46.0793 -22.4580 -22.3663 -22.3662  -6.3036  -6.0877  -6.0165  -5.0439
    -5.0316  -4.8492  -4.7811  -4.7538   3.5465   5.7735   5.8677   6.3007
     6.8046   6.8600   7.8218   9.8000   9.8932  10.0236  13.6966  14.1187
    14.1206  15.8786

          k = 0.3500 0.3500 0.4500 (  5056 PWs)   bands (ev):

   -46.0791 -22.4576 -22.3766 -22.3658  -6.2927  -6.0903  -5.9937  -5.0340
    -5.0203  -4.7972  -4.7540  -4.7219   3.6673   5.6654   5.7298   6.1291
     6.6361   6.8437   7.3346   9.8556   9.9673  10.1391  13.9242  14.0784
    14.2814  16.2593

          k = 0.3500 0.4500 0.4500 (  5051 PWs)   bands (ev):

   -46.0789 -22.4682 -22.3762 -22.3654  -6.1905  -6.1394  -6.0267  -5.0301
    -5.0044  -4.7680  -4.7065  -4.6633   3.8625   5.5096   5.6503   5.9744
     6.4484   6.7063   6.8159   9.9521  10.1217  10.1554  14.0868  14.1883
    14.3521  16.6241

          k = 0.4500 0.4500 0.4500 (  5034 PWs)   bands (ev):

   -46.0787 -22.4677 -22.3757 -22.3757  -6.2091  -6.0803  -6.0659  -5.0148
    -5.0009  -4.7051  -4.6411  -4.6351   4.3589   5.3282   5.4031   5.8827
     5.9480   6.4333   6.5443  10.1341  10.1469  10.2987  14.2600  14.3287
    14.3315  16.9800

          k =-0.0500 0.1500 0.0500 (  5074 PWs)   bands (ev):

   -46.0818 -22.4271 -22.3250 -22.3249  -7.1300  -6.2152  -6.0987  -5.0586
    -5.0520  -5.0494  -4.9265  -4.9012   4.1574   6.8627   6.8666   7.1867
     8.5930   8.6192   9.1231   9.1554   9.5388   9.5562  12.5010  13.1856
    13.2014  14.6976

          k =-0.0500 0.2500 0.0500 (  5093 PWs)   bands (ev):

   -46.0815 -22.4446 -22.3243 -22.3243  -6.9686  -6.1794  -6.0391  -5.0688
    -5.0595  -5.0574  -4.9866  -4.8960   3.7757   6.8327   6.9533   7.1217
     8.3353   8.3597   9.1054   9.2228   9.6039   9.6719  12.5037  13.5752
    13.5990  14.7014

          k =-0.0500 0.3500 0.0500 (  5090 PWs)   bands (ev):

   -46.0811 -22.4621 -22.3237 -22.3237  -6.7930  -6.1516  -5.9709  -5.0984
    -5.0679  -5.0567  -5.0426  -4.8931   3.4727   6.4543   7.0498   7.1806
     8.1049   8.1098   9.0438   9.4499   9.6566  10.0500  12.5054  13.9493
    13.9781  14.3444

          k =-0.0500 0.4500 0.0500 (  5073 PWs)   bands (ev):

   -46.0809 -22.4729 -22.3233 -22.3233  -6.6731  -6.1423  -5.9225  -5.1356
    -5.0726  -5.0644  -5.0561  -4.8927   3.3133   6.1465   7.1183   7.2841
     7.9348   7.9659   9.0038   9.5395   9.6916  10.5040  12.5036  13.6045
    14.1745  14.2098

          k = 0.1500 0.0500 0.1500 (  5079 PWs)   bands (ev):

   -46.0816 -22.4154 -22.3358 -22.3355  -7.0665  -6.1776  -6.0712  -5.0747
    -5.0511  -5.0486  -4.9364  -4.9037   3.9517   6.8213   7.0051   7.3270
     8.3869   8.5068   9.0044   9.2042   9.3873   9.5385  13.0014  13.0596
    13.0955  15.2150

          k =-0.0500 0.2500 0.1500 (  5077 PWs)   bands (ev):

   -46.0812 -22.4442 -22.3349 -22.3239  -6.8944  -6.1509  -6.0263  -5.0811
    -5.0656  -5.0569  -4.9529  -4.9110   3.6351   6.7298   6.9865   7.2685
     8.0779   8.3384   8.8506   9.2667   9.3899   9.8013  12.8164  13.5825
    13.6373  15.0233

          k = 0.2500 0.0500 0.1500 (  5077 PWs)   bands (ev):

   -46.0812 -22.4147 -22.3527 -22.3349  -6.9410  -6.1264  -6.0209  -5.0860
    -5.0602  -5.0487  -4.9667  -4.9031   3.6579   6.8040   7.0605   7.2820
     8.1634   8.2740   8.9086   9.1998   9.3940   9.6568  13.0331  13.3649
    13.4630  15.2381

          k =-0.0500 0.3500 0.1500 (  5080 PWs)   bands (ev):

   -46.0809 -22.4616 -22.3342 -22.3233  -6.7282  -6.1227  -5.9721  -5.1058
    -5.0658  -5.0623  -4.9832  -4.9078   3.3738   6.4136   6.9975   7.2715
     7.8697   8.1299   8.9306   9.2561   9.4511  10.1008  12.8088  13.9486
    13.9898  14.5239

          k = 0.3500 0.0500 0.1500 (  5080 PWs)   bands (ev):

   -46.0809 -22.4141 -22.3698 -22.3343  -6.8152  -6.0620  -5.9743  -5.1019
    -5.0657  -5.0482  -5.0043  -4.8997   3.4105   6.5300   7.0914   7.3815
     7.8984   8.2533   8.6312   9.2511   9.4240   9.9608  13.0145  13.7533
    13.8365  14.4813

          k =-0.0500 0.4500 0.1500 (  5079 PWs)   bands (ev):

   -46.0807 -22.4723 -22.3338 -22.3229  -6.6187  -6.1082  -5.9355  -5.1275
    -5.0694  -5.0637  -4.9936  -4.9103   3.2311   6.1256   7.0070   7.3740
     7.7384   7.9805   9.0288   9.2337   9.4904  10.3336  12.7951  13.9906
    14.1864  14.2376

          k = 0.4500 0.0500 0.1500 (  5079 PWs)   bands (ev):

   -46.0807 -22.4136 -22.3803 -22.3339  -6.7382  -6.0065  -5.9544  -5.1176
    -5.0696  -5.0479  -5.0217  -4.9006   3.2769   6.2549   7.1952   7.4757
     7.8301   8.0474   8.5641   9.2388   9.4627  10.2272  12.9748  13.9766
    14.0090  14.0838

          k = 0.2500 0.0500 0.2500 (  5076 PWs)   bands (ev):

   -46.0809 -22.4141 -22.3522 -22.3518  -6.8386  -6.0834  -5.9651  -5.0862
    -5.0626  -5.0543  -4.9389  -4.9303   3.4478   6.7576   7.0034   7.2714
     7.8625   7.9677   8.9251   9.0398   9.5985   9.7169  13.2883  13.4188
    13.7299  15.1018

          k =-0.0500 0.3500 0.2500 (  5080 PWs)   bands (ev):

   -46.0806 -22.4608 -22.3512 -22.3226  -6.6356  -6.0827  -5.9424  -5.0997
    -5.0757  -5.0608  -4.9470  -4.8952   3.2179   6.3614   6.9625   7.1815
     7.7787   8.0376   8.4819   9.1076   9.5255  10.0076  13.2502  13.9653
    14.0953  14.8036

          k = 0.3500 0.0500 0.2500 (  5080 PWs)   bands (ev):

   -46.0806 -22.4134 -22.3690 -22.3513  -6.7475  -6.0161  -5.9118  -5.0918
    -5.0648  -5.0559  -4.9517  -4.9204   3.2549   6.5353   6.8988   7.2691
     7.6855   7.9623   8.6082   9.1130   9.6248   9.8888  13.3137  13.7561
    14.0087  14.7781

          k =-0.0500 0.4500 0.2500 (  5084 PWs)   bands (ev):

   -46.0803 -22.4715 -22.3507 -22.3222  -6.5541  -6.0518  -5.9131  -5.1124
    -5.0750  -5.0673  -4.9452  -4.8884   3.0997   6.0897   6.9498   7.1636
     7.7318   7.9715   8.4911   9.1496   9.4982  10.0574  13.2388  14.1953
    14.2503  14.6845

          k = 0.4500 0.0500 0.2500 (  5084 PWs)   bands (ev):

   -46.0803 -22.4130 -22.3794 -22.3508  -6.6988  -5.9516  -5.8879  -5.1009
    -5.0674  -5.0590  -4.9439  -4.9244   3.1446   6.2625   6.9826   7.1426
     7.7279   8.0711   8.3045   9.1934   9.5582  10.0111  13.2931  14.0133
    14.1966  14.5745

          k = 0.3500 0.0500 0.3500 (  5079 PWs)   bands (ev):

   -46.0802 -22.4127 -22.3683 -22.3680  -6.7020  -5.9341  -5.8475  -5.0864
    -5.0696  -5.0546  -4.9697  -4.8784   3.1031   6.4715   6.6191   7.2323
     7.4186   7.9799   8.6174   8.8582   9.5810  10.0092  13.6566  13.7938
    14.2011  15.0304

          k =-0.0500 0.4500 0.3500 (  5079 PWs)   bands (ev):

   -46.0800 -22.4706 -22.3676 -22.3215  -6.5235  -5.9901  -5.8397  -5.1024
    -5.0815  -5.0651  -4.9790  -4.7999   2.9715   6.0471   6.6388   7.1938
     7.6629   7.9410   8.3194   8.8397   9.3473  10.0677  13.6458  14.1972
    14.4233  15.2281

          k = 0.4500 0.0500 0.3500 (  5079 PWs)   bands (ev):

   -46.0800 -22.4123 -22.3786 -22.3677  -6.6845  -5.8571  -5.8144  -5.0892
    -5.0681  -5.0618  -4.9807  -4.8486   3.0122   6.2274   6.6299   7.1141
     7.3883   8.1463   8.3895   8.8625   9.3961  10.1561  13.7078  14.0075
    14.3388  15.1214

          k = 0.4500 0.0500 0.4500 (  5100 PWs)   bands (ev):

   -46.0798 -22.4119 -22.3781 -22.3781  -6.6852  -5.7799  -5.7666  -5.0882
    -5.0661  -5.0618  -5.0085  -4.8024   2.9308   6.1084   6.5036   7.1513
     7.1723   8.2928   8.4496   8.6130   9.1506  10.3274  13.9871  14.0125
    14.4311  15.3938

          k =-0.1500 0.2500 0.1500 (  5084 PWs)   bands (ev):

   -46.0810 -22.4437 -22.3346 -22.3344  -6.8211  -6.1297  -6.0192  -5.0892
    -5.0744  -5.0437  -4.9284  -4.9117   3.5546   6.7224   6.7496   7.3185
     7.9809   8.1467   8.7718   9.3533   9.4841   9.6882  13.0154  13.5920
    13.6427  15.1645

          k =-0.1500 0.3500 0.1500 (  5082 PWs)   bands (ev):

   -46.0807 -22.4611 -22.3339 -22.3337  -6.6600  -6.1028  -5.9851  -5.1082
    -5.0709  -5.0307  -4.9503  -4.9084   3.3353   6.4156   6.6829   7.2207
     7.8484   8.1307   8.6122   9.3687   9.5331   9.9547  12.9536  13.9381
    13.9654  14.6809

          k =-0.1500 0.4500 0.1500 (  5084 PWs)   bands (ev):

   -46.0805 -22.4718 -22.3334 -22.3333  -6.5559  -6.0877  -5.9632  -5.1180
    -5.0685  -5.0156  -4.9667  -4.9134   3.2105   6.1290   6.6340   7.2704
     7.7916   8.0991   8.5694   9.3656   9.5628  10.0857  12.8969  14.1592
    14.1673  14.4644

          k = 0.2500 0.1500 0.2500 (  5081 PWs)   bands (ev):

   -46.0807 -22.4249 -22.3518 -22.3514  -6.7479  -6.0854  -5.9739  -5.0886
    -5.0738  -5.0304  -4.9196  -4.9038   3.4324   6.6387   6.7505   7.1239
     7.6165   7.9321   9.0568   9.2360   9.5586   9.6165  13.3488  13.5262
    13.6974  14.9534

          k =-0.1500 0.3500 0.2500 (  5080 PWs)   bands (ev):

   -46.0803 -22.4603 -22.3508 -22.3331  -6.5618  -6.0815  -5.9739  -5.0991
    -5.0726  -5.0107  -4.9187  -4.8802   3.2604   6.3498   6.5786   6.9261
     7.5427   7.9651   8.6644   9.3547   9.5634   9.8053  13.2362  13.9039
    14.0331  14.9317

          k = 0.3500 0.1500 0.2500 (  5080 PWs)   bands (ev):

   -46.0803 -22.4242 -22.3685 -22.3508  -6.6570  -6.0402  -5.9319  -5.0905
    -5.0661  -5.0105  -4.9190  -4.8997   3.2914   6.4894   6.6523   6.8660
     7.4299   7.9289   8.9014   9.2538   9.5191   9.7939  13.3218  13.7601
    13.9684  14.9093

          k =-0.1500 0.4500 0.2500 (  5077 PWs)   bands (ev):

   -46.0801 -22.4710 -22.3503 -22.3327  -6.4782  -6.0574  -5.9642  -5.1018
    -5.0679  -4.9919  -4.9258  -4.8734   3.1646   6.0968   6.4663   6.9176
     7.5262   8.0414   8.4887   9.4104   9.5210   9.8187  13.2126  14.1257
    14.2203  15.0129

          k = 0.4500 0.1500 0.2500 (  5077 PWs)   bands (ev):

   -46.0801 -22.4237 -22.3789 -22.3504  -6.6094  -6.0057  -5.9012  -5.0902
    -5.0592  -4.9931  -4.9187  -4.9053   3.2051   6.2592   6.5789   6.8306
     7.3940   7.9899   8.7210   9.3122   9.4284   9.8688  13.3010  13.9612
    14.1743  14.9455

          k = 0.3500 0.1500 0.3500 (  5081 PWs)   bands (ev):

   -46.0800 -22.4235 -22.3679 -22.3676  -6.6103  -5.9754  -5.8943  -5.0814
    -5.0586  -4.9886  -4.9171  -4.8627   3.2036   6.4447   6.4755   6.6437
     7.0493   7.9076   8.9356   9.1267   9.3192  10.0120  13.5584  13.8075
    14.1324  15.1919

          k =-0.1500 0.4500 0.3500 (  5079 PWs)   bands (ev):

   -46.0798 -22.4701 -22.3672 -22.3320  -6.4408  -6.0284  -5.9084  -5.0906
    -5.0503  -4.9782  -4.9444  -4.7840   3.1047   6.0304   6.5137   6.5728
     7.0543   7.9982   8.5903   9.1056   9.2670  10.0236  13.5989  14.0949
    14.3376  15.4953

          k = 0.4500 0.1500 0.3500 (  5079 PWs)   bands (ev):

   -46.0798 -22.4231 -22.3781 -22.3673  -6.5941  -5.9236  -5.8664  -5.0777
    -5.0464  -4.9745  -4.9277  -4.8341   3.1440   6.2192   6.4844   6.5417
     6.9366   7.9446   8.7760   9.1002   9.1903  10.1457  13.6591  13.9483
    14.2795  15.4375

          k = 0.4500 0.1500 0.4500 (  5073 PWs)   bands (ev):

   -46.0796 -22.4226 -22.3777 -22.3776  -6.5965  -5.8567  -5.8447  -5.0727
    -5.0248  -4.9615  -4.9486  -4.7878   3.0984   6.0983   6.4452   6.5418
     6.6385   7.9661   8.5737   9.0592   9.0695  10.3218  13.9201  13.9637
    14.3754  15.7457

          k =-0.2500 0.3500 0.2500 (  5072 PWs)   bands (ev):

   -46.0800 -22.4596 -22.3502 -22.3500  -6.4542  -6.0803  -6.0033  -5.0828
    -5.0626  -4.9619  -4.8756  -4.8446   3.3172   6.1854   6.3378   6.6429
     7.3754   7.4032   8.8002   9.5214   9.6312   9.7268  13.3089  13.9034
    14.0259  15.1827

          k =-0.2500 0.4500 0.2500 (  5073 PWs)   bands (ev):

   -46.0798 -22.4702 -22.3497 -22.3495  -6.3710  -6.0670  -6.0125  -5.0811
    -5.0530  -4.9193  -4.8829  -4.8306   3.2643   6.0495   6.1168   6.5683
     7.3529   7.4280   8.5660   9.4766   9.6607   9.7803  13.3640  14.0583
    14.2238  15.4660

          k = 0.3500 0.2500 0.3500 (  5057 PWs)   bands (ev):

   -46.0797 -22.4408 -22.3671 -22.3669  -6.4589  -6.0346  -5.9598  -5.0577
    -5.0498  -4.9101  -4.8328  -4.8286   3.3738   6.1106   6.1183   6.4552
     6.8943   7.2886   8.4935   9.5602   9.5987  10.0171  13.5311  13.9148
    14.1117  15.5009

          k =-0.2500 0.4500 0.3500 (  5063 PWs)   bands (ev):

   -46.0794 -22.4694 -22.3665 -22.3490  -6.3097  -6.0819  -5.9951  -5.0648
    -5.0286  -4.8891  -4.8445  -4.7526   3.3502   5.8667   6.1179   6.2494
     6.7915   7.3562   8.0899   9.5188   9.7405  10.0020  13.6633  14.0604
    14.2906  15.8652

          k = 0.4500 0.2500 0.3500 (  5063 PWs)   bands (ev):

   -46.0794 -22.4404 -22.3774 -22.3665  -6.4452  -6.0137  -5.9352  -5.0523
    -5.0349  -4.8644  -4.8330  -4.8002   3.3846   5.9742   6.1043   6.2131
     6.7791   7.2862   8.1356   9.5864   9.6072  10.1399  13.7232  13.9543
    14.2592  15.8450

          k = 0.4500 0.2500 0.4500 (  5070 PWs)   bands (ev):

   -46.0792 -22.4399 -22.3769 -22.3769  -6.4510  -5.9544  -5.9431  -5.0454
    -5.0186  -4.8287  -4.8180  -4.7591   3.4279   5.9452   5.9689   6.0901
     6.5437   7.2610   7.7102   9.6196   9.6233  10.3129  13.9466  14.0064
    14.3388  16.1702

          k =-0.3500 0.4500 0.3500 (  5056 PWs)   bands (ev):

   -46.0791 -22.4686 -22.3659 -22.3657  -6.2035  -6.1209  -6.0485  -5.0409
    -5.0151  -4.8145  -4.7483  -4.7073   3.6464   5.5817   5.8575   6.0579
     6.6642   6.8524   7.3284   9.8863  10.0131  10.0345  13.8744  14.1461
    14.2900  16.2609

          k = 0.4500 0.3500 0.4500 (  5051 PWs)   bands (ev):

   -46.0789 -22.4571 -22.3762 -22.3762  -6.3030  -6.0345  -6.0227  -5.0179
    -5.0161  -4.7342  -4.7035  -4.7017   3.8926   5.5441   5.5505   6.0088
     6.5425   6.6750   6.7679   9.9780   9.9864  10.3041  14.1095  14.1726
    14.3227  16.6196

     the Fermi energy is    10.4072 ev

!    total energy              =    -364.95488634 Ry
     Harris-Foulkes estimate   =    -364.95488635 Ry
     estimated scf accuracy    <          5.7E-09 Ry

     The total energy is the sum of the following terms:

     one-electron contribution =     -83.53075209 Ry
     hartree contribution      =      71.16861760 Ry
     xc contribution           =     -85.82952424 Ry
     ewald contribution        =    -266.76934549 Ry
     smearing contrib. (-TS)   =       0.00611789 Ry

     convergence has been achieved in  13 iterations

     Forces acting on atoms (cartesian axes, Ry/au):

     atom    1 type  1   force =     0.00000000   -0.01736212    0.00000000
     atom    2 type  2   force =     0.00000000    0.03243298    0.00000000
     atom    3 type  3   force =     0.00000000   -0.00297502    0.00000000
     atom    4 type  3   force =     0.00000000   -0.00912081    0.00000000
     atom    5 type  3   force =     0.00000000   -0.00297502    0.00000000

     Total force =     0.010044     Total SCF correction =     0.000012


     Computing stress (Cartesian axis) and pressure

          total   stress  (Ry/bohr**3)                   (kbar)     P=   16.42
   0.00002405   0.00000000   0.00000000          3.54      0.00      0.00
   0.00000000   0.00028677   0.00000000          0.00     42.18      0.00
   0.00000000   0.00000000   0.00002405          0.00      0.00      3.54


     BFGS Geometry Optimization

     number of scf cycles    =   1
     number of bfgs steps    =   0

     energy   new            =    -364.9548863414 Ry

     new trust radius        =       0.0091208108 bohr
     new conv_thr            =       0.0000000100 Ry


ATOMIC_POSITIONS (crystal)
Pb       0.000000000   0.000000000   0.000000000    0   0   0
Ti       0.500000000   0.455000000   0.500000000    0   0   0
O        0.500000000   0.499602801   0.000000000
O        0.500000000  -0.001217732   0.500000000
O        0.000000000   0.499602801   0.500000000



     Writing output data file PbTiO3.save/
     NEW-OLD atomic charge density approx. for the potential

     Check: negative core charge=   -0.000006

     total cpu time spent up to now is      510.1 secs

     Self-consistent Calculation

     iteration #  1     ecut=    80.00 Ry     beta= 0.70
     Davidson diagonalization with overlap
     ethr =  1.00E-06,  avg # of iterations =  3.2

     Threshold (ethr) on eigenvalues was too large:
     Diagonalizing with lowered threshold

     Davidson diagonalization with overlap
     ethr =  4.61E-08,  avg # of iterations =  1.2

     total cpu time spent up to now is      579.5 secs

     total energy              =    -364.95496936 Ry
     Harris-Foulkes estimate   =    -364.95498266 Ry
     estimated scf accuracy    <       0.00002036 Ry

     iteration #  2     ecut=    80.00 Ry     beta= 0.70
     Davidson diagonalization with overlap
     ethr =  4.63E-08,  avg # of iterations =  4.0

     total cpu time spent up to now is      618.5 secs

     total energy              =    -364.95496501 Ry
     Harris-Foulkes estimate   =    -364.95498574 Ry
     estimated scf accuracy    <       0.00005123 Ry

     iteration #  3     ecut=    80.00 Ry     beta= 0.70
     Davidson diagonalization with overlap
     ethr =  4.63E-08,  avg # of iterations =  3.0

     total cpu time spent up to now is      654.6 secs

     total energy              =    -364.95497567 Ry
     Harris-Foulkes estimate   =    -364.95497763 Ry
     estimated scf accuracy    <       0.00000595 Ry

     iteration #  4     ecut=    80.00 Ry     beta= 0.70
     Davidson diagonalization with overlap
     ethr =  1.35E-08,  avg # of iterations =  2.7

     total cpu time spent up to now is      686.1 secs

     total energy              =    -364.95497654 Ry
     Harris-Foulkes estimate   =    -364.95497664 Ry
     estimated scf accuracy    <       0.00000020 Ry

     iteration #  5     ecut=    80.00 Ry     beta= 0.70
     Davidson diagonalization with overlap
     ethr =  4.44E-10,  avg # of iterations =  3.9

     total cpu time spent up to now is      725.1 secs

     total energy              =    -364.95497660 Ry
     Harris-Foulkes estimate   =    -364.95497665 Ry
     estimated scf accuracy    <       0.00000012 Ry

     iteration #  6     ecut=    80.00 Ry     beta= 0.70
     Davidson diagonalization with overlap
     ethr =  2.81E-10,  avg # of iterations =  2.9

     total cpu time spent up to now is      758.2 secs

     total energy              =    -364.95497662 Ry
     Harris-Foulkes estimate   =    -364.95497663 Ry
     estimated scf accuracy    <       0.00000002 Ry

     iteration #  7     ecut=    80.00 Ry     beta= 0.70
     Davidson diagonalization with overlap
     ethr =  3.67E-11,  avg # of iterations =  2.3

     total cpu time spent up to now is      790.3 secs

     End of self-consistent calculation

          k = 0.0500 0.0500 0.0500 (  5047 PWs)   bands (ev):

   -46.0916 -22.4200 -22.3349 -22.3349  -7.2248  -6.2376  -6.1347  -5.0571
    -5.0415  -5.0412  -4.9038  -4.8901   4.4619   6.8165   6.8579   6.9969
     8.7988   8.8253   9.1658   9.2823   9.5224   9.5281  12.4918  12.9127
    12.9192  14.6860

          k = 0.0500 0.0500 0.1500 (  5074 PWs)   bands (ev):

   -46.0914 -22.4196 -22.3455 -22.3345  -7.1434  -6.2037  -6.1048  -5.0648
    -5.0493  -5.0408  -4.9344  -4.8886   4.1658   6.8706   6.9371   7.1756
     8.5863   8.7561   9.1196   9.1809   9.3787   9.5153  12.8098  12.9214
    13.0301  14.8668

          k = 0.0500 0.0500 0.2500 (  5093 PWs)   bands (ev):

   -46.0910 -22.4189 -22.3627 -22.3339  -7.0075  -6.1439  -6.0572  -5.0778
    -5.0619  -5.0400  -4.9909  -4.8836   3.7975   6.8765   7.0497   7.1935
     8.4492   8.5383   9.0392   9.1115   9.3141   9.5833  12.9214  13.2738
    13.3695  14.8692

          k = 0.0500 0.0500 0.3500 (  5090 PWs)   bands (ev):

   -46.0907 -22.4183 -22.3797 -22.3333  -6.8658  -6.0745  -6.0130  -5.0974
    -5.0758  -5.0454  -5.0391  -4.8805   3.5094   6.5260   7.2297   7.3544
     8.1691   8.2793   8.9763   9.0558   9.4224   9.9538  12.9222  13.6940
    13.7721  14.2676

          k = 0.0500 0.0500 0.4500 (  5073 PWs)   bands (ev):

   -46.0904 -22.4178 -22.3903 -22.3329  -6.7747  -6.0195  -5.9937  -5.1251
    -5.0857  -5.0661  -5.0386  -4.8798   3.3597   6.2430   7.4163   7.6058
     7.8879   7.9760   8.9405   9.0620   9.4756  10.3951  12.9106  13.5517
    13.9426  14.0438

          k = 0.0500 0.1500 0.1500 (  5079 PWs)   bands (ev):

   -46.0911 -22.4304 -22.3451 -22.3341  -7.0510  -6.1815  -6.0773  -5.0653
    -5.0596  -5.0477  -4.9264  -4.9089   3.9445   6.8256   6.9322   7.3449
     8.3493   8.5780   8.9655   9.2346   9.3343   9.5970  12.8107  13.1776
    13.2604  14.9879

          k = 0.0500 0.1500 0.2500 (  5077 PWs)   bands (ev):

   -46.0908 -22.4298 -22.3622 -22.3335  -6.9198  -6.1294  -6.0366  -5.0823
    -5.0684  -5.0472  -4.9576  -4.9000   3.6498   6.7825   7.0495   7.2800
     8.1840   8.4030   8.8402   9.1010   9.2832   9.7566  13.1672  13.2818
    13.5409  15.0409

          k = 0.0500 0.1500 0.3500 (  5080 PWs)   bands (ev):

   -46.0904 -22.4291 -22.3792 -22.3329  -6.7853  -6.0762  -5.9915  -5.1018
    -5.0772  -5.0468  -4.9849  -4.8963   3.4029   6.5109   7.1547   7.3339
     7.9360   8.2347   8.7862   9.1004   9.2658  10.0050  13.1698  13.6889
    13.8912  14.4317

          k = 0.0500 0.1500 0.4500 (  5079 PWs)   bands (ev):

   -46.0902 -22.4286 -22.3897 -22.3325  -6.7005  -6.0429  -5.9605  -5.1172
    -5.0853  -5.0464  -4.9940  -4.8986   3.2699   6.2470   7.2673   7.4944
     7.7673   7.9718   8.8244   9.1619   9.2378  10.2052  13.1523  13.9233
    13.9552  14.1351

          k = 0.0500 0.2500 0.2500 (  5076 PWs)   bands (ev):

   -46.0904 -22.4472 -22.3615 -22.3328  -6.7770  -6.1089  -5.9933  -5.0869
    -5.0721  -5.0548  -4.9330  -4.9136   3.4260   6.6560   7.0572   7.1904
     7.9674   8.1180   8.6098   9.0668   9.4658   9.8988  13.2559  13.5756
    13.8167  15.0029

          k = 0.0500 0.2500 0.3500 (  5080 PWs)   bands (ev):

   -46.0901 -22.4464 -22.3784 -22.3322  -6.6643  -6.0746  -5.9381  -5.0966
    -5.0762  -5.0561  -4.9436  -4.8923   3.2341   6.4753   6.9370   7.2650
     7.7494   8.0866   8.5057   8.8991   9.5768   9.9106  13.5471  13.6847
    14.0796  14.7219

          k = 0.0500 0.2500 0.4500 (  5084 PWs)   bands (ev):

   -46.0899 -22.4460 -22.3889 -22.3318  -6.5996  -6.0513  -5.8958  -5.1034
    -5.0837  -5.0573  -4.9368  -4.8887   3.1255   6.2452   6.9648   7.2598
     7.6643   8.0816   8.4425   8.8948   9.5949   9.8838  13.5478  13.9146
    14.2756  14.5364

          k = 0.0500 0.3500 0.3500 (  5079 PWs)   bands (ev):

   -46.0898 -22.4637 -22.3776 -22.3315  -6.5672  -6.0373  -5.8786  -5.0952
    -5.0789  -5.0589  -4.9660  -4.8345   3.0711   6.3013   6.6701   7.2624
     7.6574   7.9481   8.3890   8.8274   9.5636   9.9432  13.6485  13.9480
    14.2748  15.0300

          k = 0.0500 0.3500 0.4500 (  5079 PWs)   bands (ev):

   -46.0895 -22.4632 -22.3880 -22.3311  -6.5377  -6.0029  -5.8242  -5.0965
    -5.0823  -5.0622  -4.9741  -4.8001   2.9831   6.1795   6.5369   7.3179
     7.4916   8.1194   8.2899   8.7134   9.3679  10.0209  13.8862  13.9444
    14.4382  15.0926

          k = 0.0500 0.4500 0.4500 (  5100 PWs)   bands (ev):

   -46.0893 -22.4738 -22.3875 -22.3307  -6.5218  -5.9420  -5.7758  -5.0988
    -5.0816  -5.0627  -4.9981  -4.7491   2.8964   5.9994   6.4173   7.3133
     7.4504   8.0708   8.3385   8.6338   9.0532  10.1980  13.8729  14.1809
    14.5514  15.4491

          k = 0.1500 0.1500 0.1500 (  5095 PWs)   bands (ev):

   -46.0909 -22.4300 -22.3448 -22.3446  -6.9747  -6.1570  -6.0541  -5.0738
    -5.0653  -5.0471  -4.9226  -4.9104   3.7959   6.8006   6.8475   7.4567
     8.1954   8.3328   8.9465   9.2969   9.4233   9.4783  13.0367  13.2442
    13.2747  15.4798

          k = 0.1500 0.1500 0.2500 (  5084 PWs)   bands (ev):

   -46.0906 -22.4293 -22.3618 -22.3440  -6.8511  -6.1156  -6.0142  -5.0888
    -5.0663  -5.0433  -4.9393  -4.9001   3.5706   6.7424   6.8422   7.3071
     7.9711   8.1391   8.9639   9.2176   9.3894   9.6620  13.2101  13.4102
    13.5359  15.1429

          k = 0.1500 0.1500 0.3500 (  5082 PWs)   bands (ev):

   -46.0902 -22.4286 -22.3788 -22.3434  -6.7287  -6.0719  -5.9698  -5.1017
    -5.0592  -5.0368  -4.9628  -4.8963   3.3661   6.5103   6.8468   7.1888
     7.7656   8.1913   8.7096   9.2719   9.4018   9.8743  13.1523  13.7415
    13.8806  14.6350

          k = 0.1500 0.1500 0.4500 (  5084 PWs)   bands (ev):

   -46.0900 -22.4282 -22.3892 -22.3430  -6.6546  -6.0438  -5.9386  -5.1070
    -5.0539  -5.0291  -4.9793  -4.8998   3.2509   6.2531   6.8432   7.2371
     7.6694   8.3059   8.4627   9.3406   9.3883   9.9824  13.0884  13.9601
    14.1180  14.3916

          k = 0.1500 0.2500 0.2500 (  5081 PWs)   bands (ev):

   -46.0902 -22.4468 -22.3610 -22.3434  -6.7060  -6.1004  -5.9958  -5.0909
    -5.0752  -5.0300  -4.9139  -4.8961   3.4188   6.5980   6.7149   7.1311
     7.6752   7.9559   8.9008   9.2517   9.5078   9.7471  13.2948  13.5781
    13.7688  14.9439

          k = 0.1500 0.2500 0.3500 (  5080 PWs)   bands (ev):

   -46.0899 -22.4460 -22.3780 -22.3427  -6.5978  -6.0841  -5.9470  -5.0939
    -5.0649  -5.0192  -4.9169  -4.8767   3.2778   6.4498   6.6714   6.8942
     7.3856   8.0006   8.9134   9.1000   9.5770   9.7507  13.4064  13.7142
    14.0168  14.9002

          k = 0.1500 0.2500 0.4500 (  5077 PWs)   bands (ev):

   -46.0897 -22.4455 -22.3884 -22.3423  -6.5369  -6.0767  -5.9053  -5.0929
    -5.0556  -5.0153  -4.9110  -4.8752   3.1923   6.2448   6.6324   6.8300
     7.3010   8.0978   8.7211   9.1891   9.5112   9.7382  13.4077  13.9039
    14.2160  14.9353

          k = 0.1500 0.3500 0.3500 (  5081 PWs)   bands (ev):

   -46.0895 -22.4633 -22.3772 -22.3420  -6.4891  -6.0653  -5.9221  -5.0902
    -5.0577  -4.9987  -4.9242  -4.8190   3.1754   6.2664   6.5752   6.6599
     7.0842   7.9684   8.7921   9.1076   9.4025   9.9060  13.5599  13.8720
    14.1870  15.2021

          k = 0.1500 0.3500 0.4500 (  5079 PWs)   bands (ev):

   -46.0893 -22.4628 -22.3876 -22.3416  -6.4588  -6.0541  -5.8721  -5.0860
    -5.0395  -5.0012  -4.9271  -4.7849   3.1173   6.1664   6.4650   6.6273
     6.8968   8.0364   8.7243   9.0329   9.1892  10.0130  13.7768  13.8887
    14.3394  15.4306

          k = 0.1500 0.4500 0.4500 (  5073 PWs)   bands (ev):

   -46.0891 -22.4734 -22.3871 -22.3412  -6.4390  -6.0043  -5.8525  -5.0832
    -5.0195  -4.9848  -4.9518  -4.7325   3.0637   5.9815   6.3791   6.6262
     6.7463   8.0388   8.4780   8.9397   9.1268  10.1824  13.8535  14.0677
    14.4424  15.7668

          k = 0.2500 0.2500 0.2500 (  5070 PWs)   bands (ev):

   -46.0899 -22.4460 -22.3605 -22.3602  -6.5992  -6.0851  -5.9907  -5.0800
    -5.0762  -4.9989  -4.8905  -4.8699   3.3885   6.4179   6.4922   6.9859
     7.4444   7.5205   9.0783   9.4934   9.5110   9.6544  13.3004  13.7371
    13.7447  14.9690

          k = 0.2500 0.2500 0.3500 (  5072 PWs)   bands (ev):

   -46.0896 -22.4453 -22.3772 -22.3596  -6.5091  -6.0759  -5.9593  -5.0747
    -5.0600  -4.9623  -4.8733  -4.8517   3.3366   6.2771   6.3531   6.6538
     7.1789   7.4854   8.9218   9.4474   9.5503   9.7938  13.3683  13.8002
    14.0017  15.1709

          k = 0.2500 0.2500 0.4500 (  5073 PWs)   bands (ev):

   -46.0893 -22.4448 -22.3876 -22.3592  -6.4647  -6.0761  -5.9210  -5.0705
    -5.0481  -4.9263  -4.8701  -4.8473   3.2957   6.1758   6.2496   6.4503
     7.1174   7.5272   8.6881   9.4735   9.5123   9.8527  13.4668  13.8968
    14.1987  15.4226

          k = 0.2500 0.3500 0.3500 (  5057 PWs)   bands (ev):

   -46.0892 -22.4625 -22.3765 -22.3589  -6.3743  -6.0935  -5.9815  -5.0667
    -5.0413  -4.9210  -4.8491  -4.7896   3.3556   6.0412   6.1792   6.4382
     6.8506   7.3671   8.4648   9.5293   9.7017   9.9038  13.5252  13.9315
    14.1343  15.5046

          k = 0.2500 0.3500 0.4500 (  5063 PWs)   bands (ev):

   -46.0890 -22.4621 -22.3868 -22.3585  -6.3437  -6.1090  -5.9384  -5.0600
    -5.0250  -4.8932  -4.8390  -4.7557   3.3657   6.0224   6.0621   6.2344
     6.6741   7.3922   8.1053   9.5517   9.6909  10.0169  13.7580  13.9294
    14.2814  15.8483

          k = 0.2500 0.4500 0.4500 (  5070 PWs)   bands (ev):

   -46.0888 -22.4726 -22.3864 -22.3581  -6.3051  -6.0870  -5.9497  -5.0556
    -5.0068  -4.8715  -4.8219  -4.7011   3.3937   5.8512   6.0632   6.1126
     6.4753   7.3679   7.6468   9.5479   9.7349  10.1668  13.9089  14.0521
    14.3745  16.1857

          k = 0.3500 0.3500 0.3500 (  5055 PWs)   bands (ev):

   -46.0889 -22.4618 -22.3758 -22.3757  -6.3015  -6.0874  -6.0183  -5.0420
    -5.0301  -4.8470  -4.7798  -4.7533   3.5480   5.7775   5.8675   6.3003
     6.8021   6.8547   7.8243   9.8047   9.8960  10.0223  13.6906  14.1093
    14.1115  15.8766

          k = 0.3500 0.3500 0.4500 (  5056 PWs)   bands (ev):

   -46.0887 -22.4613 -22.3861 -22.3753  -6.2895  -6.0911  -5.9953  -5.0322
    -5.0188  -4.7946  -4.7533  -4.7212   3.6683   5.6665   5.7333   6.1271
     6.6337   6.8394   7.3362   9.8601   9.9703  10.1375  13.9167  14.0708
    14.2727  16.2583

          k = 0.3500 0.4500 0.4500 (  5051 PWs)   bands (ev):

   -46.0884 -22.4719 -22.3857 -22.3749  -6.1891  -6.1383  -6.0282  -5.0282
    -5.0030  -4.7650  -4.7060  -4.6629   3.8642   5.5137   5.6483   5.9725
     6.4466   6.7079   6.8119   9.9570  10.1204  10.1587  14.0800  14.1794
    14.3435  16.6231

          k = 0.4500 0.4500 0.4500 (  5034 PWs)   bands (ev):

   -46.0882 -22.4715 -22.3852 -22.3852  -6.2050  -6.0817  -6.0673  -5.0129
    -4.9995  -4.7019  -4.6407  -4.6348   4.3598   5.3317   5.4028   5.8801
     5.9502   6.4324   6.5381  10.1387  10.1513  10.2964  14.2527  14.3204
    14.3231  16.9796

          k =-0.0500 0.1500 0.0500 (  5074 PWs)   bands (ev):

   -46.0914 -22.4309 -22.3345 -22.3345  -7.1305  -6.2130  -6.1011  -5.0565
    -5.0505  -5.0479  -4.9254  -4.8995   4.1592   6.8628   6.8678   7.1847
     8.6037   8.6312   9.1296   9.1555   9.5381   9.5542  12.4936  13.1671
    13.1825  14.6880

          k =-0.0500 0.2500 0.0500 (  5093 PWs)   bands (ev):

   -46.0910 -22.4484 -22.3339 -22.3338  -6.9697  -6.1767  -6.0416  -5.0673
    -5.0580  -5.0554  -4.9854  -4.8943   3.7784   6.8334   6.9561   7.1218
     8.3424   8.3686   9.1055   9.2243   9.6017   9.6711  12.4963  13.5588
    13.5821  14.6917

          k =-0.0500 0.3500 0.0500 (  5090 PWs)   bands (ev):

   -46.0907 -22.4659 -22.3332 -22.3332  -6.7949  -6.1482  -5.9737  -5.0967
    -5.0665  -5.0546  -5.0412  -4.8914   3.4765   6.4534   7.0551   7.1843
     8.1080   8.1149   9.0438   9.4483   9.6543  10.0496  12.4980  13.9344
    13.9626  14.3443

          k =-0.0500 0.4500 0.0500 (  5073 PWs)   bands (ev):

   -46.0904 -22.4766 -22.3328 -22.3328  -6.6760  -6.1380  -5.9256  -5.1336
    -5.0712  -5.0630  -5.0541  -4.8909   3.3178   6.1447   7.1261   7.2910
     7.9359   7.9658   9.0037   9.5373   9.6893  10.5030  12.4962  13.6047
    14.1604  14.1947

          k = 0.1500 0.0500 0.1500 (  5079 PWs)   bands (ev):

   -46.0911 -22.4192 -22.3453 -22.3450  -7.0662  -6.1761  -6.0734  -5.0728
    -5.0497  -5.0472  -4.9348  -4.9025   3.9530   6.8215   7.0021   7.3267
     8.3981   8.5106   9.0157   9.2026   9.3846   9.5432  12.9885  13.0444
    13.0849  15.1936

          k =-0.0500 0.2500 0.1500 (  5077 PWs)   bands (ev):

   -46.0908 -22.4480 -22.3444 -22.3335  -6.8953  -6.1484  -6.0288  -5.0795
    -5.0636  -5.0554  -4.9517  -4.9094   3.6375   6.7317   6.9886   7.2662
     8.0842   8.3459   8.8518   9.2687   9.3881   9.8002  12.8095  13.5664
    13.6227  15.0135

          k = 0.2500 0.0500 0.1500 (  5077 PWs)   bands (ev):

   -46.0908 -22.4185 -22.3622 -22.3445  -6.9401  -6.1255  -6.0231  -5.0842
    -5.0587  -5.0472  -4.9650  -4.9018   3.6592   6.8028   7.0593   7.2818
     8.1672   8.2817   8.9115   9.2026   9.3939   9.6611  13.0175  13.3538
    13.4554  15.2190

          k =-0.0500 0.3500 0.1500 (  5080 PWs)   bands (ev):

   -46.0904 -22.4654 -22.3437 -22.3328  -6.7300  -6.1192  -5.9748  -5.1041
    -5.0641  -5.0606  -4.9821  -4.9061   3.3771   6.4147   7.0012   7.2717
     7.8733   8.1347   8.9292   9.2580   9.4487  10.0995  12.8019  13.9348
    13.9756  14.5233

          k = 0.3500 0.0500 0.1500 (  5080 PWs)   bands (ev):

   -46.0904 -22.4179 -22.3793 -22.3438  -6.8136  -6.0618  -5.9764  -5.1003
    -5.0642  -5.0467  -5.0023  -4.8984   3.4118   6.5271   7.0929   7.3804
     7.8986   8.2575   8.6374   9.2538   9.4250   9.9640  12.9998  13.7442
    13.8289  14.4819

          k =-0.0500 0.4500 0.1500 (  5079 PWs)   bands (ev):

   -46.0902 -22.4761 -22.3433 -22.3324  -6.6214  -6.1038  -5.9384  -5.1256
    -5.0680  -5.0617  -4.9924  -4.9085   3.2351   6.1255   7.0128   7.3763
     7.7411   7.9814   9.0268   9.2355   9.4879  10.3321  12.7883  13.9888
    14.1729  14.2256

          k = 0.4500 0.0500 0.1500 (  5079 PWs)   bands (ev):

   -46.0902 -22.4174 -22.3897 -22.3434  -6.7360  -6.0070  -5.9564  -5.1161
    -5.0681  -5.0464  -5.0195  -4.8994   3.2783   6.2514   7.1979   7.4759
     7.8272   8.0449   8.5779   9.2411   9.4641  10.2289  12.9625  13.9742
    14.0030  14.0746

          k = 0.2500 0.0500 0.2500 (  5076 PWs)   bands (ev):

   -46.0904 -22.4179 -22.3617 -22.3613  -6.8369  -6.0832  -5.9674  -5.0846
    -5.0611  -5.0528  -4.9368  -4.9290   3.4487   6.7564   7.0026   7.2708
     7.8727   7.9695   8.9190   9.0450   9.5978   9.7219  13.2774  13.4073
    13.7234  15.1007

          k =-0.0500 0.3500 0.2500 (  5080 PWs)   bands (ev):

   -46.0901 -22.4645 -22.3607 -22.3321  -6.6374  -6.0793  -5.9446  -5.0979
    -5.0737  -5.0594  -4.9454  -4.8941   3.2206   6.3648   6.9590   7.1844
     7.7799   8.0411   8.4829   9.1057   9.5305  10.0052  13.2440  13.9499
    14.0846  14.8020

          k = 0.3500 0.0500 0.2500 (  5080 PWs)   bands (ev):

   -46.0901 -22.4172 -22.3785 -22.3608  -6.7449  -6.0170  -5.9140  -5.0903
    -5.0633  -5.0544  -4.9500  -4.9185   3.2557   6.5324   6.8990   7.2711
     7.6909   7.9665   8.6053   9.1129   9.6266   9.8896  13.3042  13.7465
    14.0027  14.7780

          k =-0.0500 0.4500 0.2500 (  5084 PWs)   bands (ev):

   -46.0899 -22.4752 -22.3602 -22.3317  -6.5567  -6.0473  -5.9157  -5.1105
    -5.0730  -5.0659  -4.9435  -4.8875   3.1028   6.0920   6.9489   7.1657
     7.7341   7.9740   8.4896   9.1473   9.5034  10.0551  13.2327  14.1808
    14.2402  14.6822

          k = 0.4500 0.0500 0.2500 (  5084 PWs)   bands (ev):

   -46.0899 -22.4168 -22.3889 -22.3603  -6.6956  -5.9531  -5.8900  -5.0994
    -5.0659  -5.0575  -4.9422  -4.9223   3.1454   6.2592   6.9824   7.1467
     7.7328   8.0718   8.3054   9.1915   9.5605  10.0099  13.2851  14.0045
    14.1903  14.5744

          k = 0.3500 0.0500 0.3500 (  5079 PWs)   bands (ev):

   -46.0898 -22.4165 -22.3778 -22.3775  -6.6985  -5.9358  -5.8499  -5.0851
    -5.0681  -5.0532  -4.9681  -4.8760   3.1035   6.4699   6.6153   7.2381
     7.4291   7.9787   8.6115   8.8584   9.5825  10.0076  13.6499  13.7844
    14.1960  15.0300

          k =-0.0500 0.4500 0.3500 (  5079 PWs)   bands (ev):

   -46.0895 -22.4743 -22.3771 -22.3311  -6.5259  -5.9854  -5.8421  -5.1005
    -5.0795  -5.0637  -4.9774  -4.7992   2.9739   6.0505   6.6344   7.1969
     7.6601   7.9453   8.3194   8.8381   9.3521  10.0685  13.6405  14.1823
    14.4136  15.2250

          k = 0.4500 0.0500 0.3500 (  5079 PWs)   bands (ev):

   -46.0896 -22.4161 -22.3881 -22.3772  -6.6806  -5.8593  -5.8168  -5.0879
    -5.0666  -5.0603  -4.9791  -4.8460   3.0124   6.2248   6.6257   7.1226
     7.3987   8.1444   8.3855   8.8599   9.3963  10.1540  13.7009  13.9992
    14.3342  15.1216

          k = 0.4500 0.0500 0.4500 (  5100 PWs)   bands (ev):

   -46.0893 -22.4157 -22.3876 -22.3876  -6.6811  -5.7823  -5.7691  -5.0868
    -5.0647  -5.0604  -5.0067  -4.7997   2.9308   6.1064   6.4977   7.1619
     7.1835   8.2897   8.4441   8.6111   9.1490  10.3251  13.9797  14.0044
    14.4282  15.3888

          k =-0.1500 0.2500 0.1500 (  5084 PWs)   bands (ev):

   -46.0906 -22.4475 -22.3441 -22.3439  -6.8217  -6.1272  -6.0216  -5.0876
    -5.0725  -5.0421  -4.9273  -4.9100   3.5569   6.7235   6.7529   7.3156
     7.9835   8.1504   8.7797   9.3549   9.4818   9.6867  13.0090  13.5786
    13.6280  15.1648

          k =-0.1500 0.3500 0.1500 (  5082 PWs)   bands (ev):

   -46.0902 -22.4649 -22.3434 -22.3432  -6.6617  -6.0993  -5.9877  -5.1064
    -5.0689  -5.0293  -4.9493  -4.9067   3.3384   6.4167   6.6881   7.2175
     7.8477   8.1372   8.6147   9.3707   9.5306   9.9530  12.9474  13.9256
    13.9521  14.6801

          k =-0.1500 0.4500 0.1500 (  5084 PWs)   bands (ev):

   -46.0900 -22.4756 -22.3430 -22.3428  -6.5586  -6.0832  -5.9658  -5.1161
    -5.0665  -5.0144  -4.9656  -4.9116   3.2141   6.1290   6.6402   7.2679
     7.7894   8.1078   8.5682   9.3677   9.5601  10.0841  12.8906  14.1472
    14.1549  14.4628

          k = 0.2500 0.1500 0.2500 (  5081 PWs)   bands (ev):

   -46.0902 -22.4287 -22.3613 -22.3609  -6.7465  -6.0849  -5.9762  -5.0870
    -5.0722  -5.0288  -4.9177  -4.9027   3.4336   6.6397   6.7504   7.1235
     7.6199   7.9316   9.0646   9.2343   9.5605   9.6161  13.3398  13.5148
    13.6894  14.9528

          k =-0.1500 0.3500 0.2500 (  5080 PWs)   bands (ev):

   -46.0899 -22.4641 -22.3603 -22.3427  -6.5633  -6.0782  -5.9761  -5.0973
    -5.0707  -5.0093  -4.9171  -4.8792   3.2630   6.3535   6.5815   6.9224
     7.5407   7.9644   8.6737   9.3523   9.5666   9.8034  13.2308  13.8910
    14.0222  14.9298

          k = 0.3500 0.1500 0.2500 (  5080 PWs)   bands (ev):

   -46.0899 -22.4280 -22.3780 -22.3603  -6.6546  -6.0407  -5.9341  -5.0890
    -5.0645  -5.0090  -4.9173  -4.8982   3.2924   6.4879   6.6542   6.8663
     7.4319   7.9292   8.9027   9.2561   9.5218   9.7925  13.3131  13.7518
    13.9604  14.9080

          k =-0.1500 0.4500 0.2500 (  5077 PWs)   bands (ev):

   -46.0897 -22.4747 -22.3598 -22.3422  -6.4806  -6.0529  -5.9665  -5.0998
    -5.0660  -4.9907  -4.9240  -4.8726   3.1676   6.0990   6.4702   6.9144
     7.5230   8.0404   8.4974   9.4086   9.5226   9.8181  13.2067  14.1130
    14.2096  15.0116

          k = 0.4500 0.1500 0.2500 (  5077 PWs)   bands (ev):

   -46.0897 -22.4275 -22.3884 -22.3599  -6.6064  -6.0068  -5.9033  -5.0888
    -5.0576  -4.9918  -4.9168  -4.9036   3.2061   6.2561   6.5813   6.8315
     7.3953   7.9917   8.7204   9.3146   9.4315   9.8668  13.2922  13.9549
    14.1657  14.9450

          k = 0.3500 0.1500 0.3500 (  5081 PWs)   bands (ev):

   -46.0896 -22.4273 -22.3774 -22.3771  -6.6069  -5.9768  -5.8965  -5.0800
    -5.0569  -4.9873  -4.9159  -4.8603   3.2042   6.4433   6.4758   6.6464
     7.0507   7.9072   8.9381   9.1261   9.3204  10.0104  13.5526  13.7982
    14.1256  15.1904

          k =-0.1500 0.4500 0.3500 (  5079 PWs)   bands (ev):

   -46.0893 -22.4739 -22.3767 -22.3416  -6.4431  -6.0239  -5.9105  -5.0887
    -5.0484  -4.9769  -4.9426  -4.7834   3.1070   6.0345   6.5151   6.5691
     7.0513   7.9959   8.5987   9.1068   9.2648  10.0262  13.5933  14.0823
    14.3281  15.4935

          k = 0.4500 0.1500 0.3500 (  5079 PWs)   bands (ev):

   -46.0893 -22.4268 -22.3876 -22.3768  -6.5902  -5.9255  -5.8685  -5.0763
    -5.0446  -4.9734  -4.9266  -4.8315   3.1443   6.2168   6.4862   6.5437
     6.9385   7.9445   8.7762   9.1006   9.1909  10.1438  13.6519  13.9411
    14.2730  15.4372

          k = 0.4500 0.1500 0.4500 (  5073 PWs)   bands (ev):

   -46.0891 -22.4264 -22.3872 -22.3871  -6.5924  -5.8588  -5.8468  -5.0713
    -5.0229  -4.9605  -4.9475  -4.7851   3.0984   6.0962   6.4438   6.5477
     6.6403   7.9657   8.5726   9.0591   9.0696  10.3196  13.9130  13.9559
    14.3704  15.7458

          k =-0.2500 0.3500 0.2500 (  5072 PWs)   bands (ev):

   -46.0895 -22.4633 -22.3597 -22.3595  -6.4550  -6.0773  -6.0054  -5.0810
    -5.0609  -4.9603  -4.8740  -4.8438   3.3195   6.1899   6.3397   6.6401
     7.3718   7.4005   8.8093   9.5210   9.6290   9.7300  13.3039  13.8922
    14.0150  15.1801

          k =-0.2500 0.4500 0.2500 (  5073 PWs)   bands (ev):

   -46.0893 -22.4739 -22.3593 -22.3591  -6.3732  -6.0626  -6.0146  -5.0792
    -5.0513  -4.9175  -4.8815  -4.8299   3.2671   6.0543   6.1177   6.5651
     7.3486   7.4255   8.5742   9.4772   9.6586   9.7835  13.3582  14.0473
    14.2131  15.4645

          k = 0.3500 0.2500 0.3500 (  5057 PWs)   bands (ev):

   -46.0892 -22.4446 -22.3766 -22.3764  -6.4558  -6.0354  -5.9617  -5.0563
    -5.0479  -4.9087  -4.8321  -4.8265   3.3746   6.1117   6.1220   6.4545
     6.8902   7.2870   8.4957   9.5638   9.6006  10.0155  13.5255  13.9055
    14.1033  15.4987

          k =-0.2500 0.4500 0.3500 (  5063 PWs)   bands (ev):

   -46.0890 -22.4731 -22.3760 -22.3585  -6.3117  -6.0777  -5.9969  -5.0629
    -5.0270  -4.8866  -4.8436  -4.7521   3.3525   5.8720   6.1178   6.2462
     6.7879   7.3525   8.0944   9.5233   9.7381  10.0059  13.6573  14.0497
    14.2810  15.8632

          k = 0.4500 0.2500 0.3500 (  5063 PWs)   bands (ev):

   -46.0890 -22.4441 -22.3869 -22.3760  -6.4415  -6.0151  -5.9370  -5.0509
    -5.0331  -4.8632  -4.8322  -4.7980   3.3852   5.9765   6.1077   6.2112
     6.7754   7.2849   8.1364   9.5889   9.6103  10.1380  13.7156  13.9473
    14.2511  15.8440

          k = 0.4500 0.2500 0.4500 (  5070 PWs)   bands (ev):

   -46.0888 -22.4437 -22.3864 -22.3864  -6.4469  -5.9561  -5.9449  -5.0440
    -5.0167  -4.8280  -4.8174  -4.7564   3.4278   5.9484   5.9733   6.0888
     6.5378   7.2603   7.7097   9.6223   9.6258  10.3106  13.9393  13.9984
    14.3322  16.1701

          k =-0.3500 0.4500 0.3500 (  5056 PWs)   bands (ev):

   -46.0887 -22.4724 -22.3754 -22.3752  -6.2041  -6.1178  -6.0501  -5.0389
    -5.0137  -4.8116  -4.7476  -4.7069   3.6485   5.5856   5.8553   6.0575
     6.6622   6.8468   7.3314   9.8914  10.0124  10.0371  13.8681  14.1367
    14.2806  16.2591

          k = 0.4500 0.3500 0.4500 (  5051 PWs)   bands (ev):

   -46.0884 -22.4609 -22.3857 -22.3857  -6.2989  -6.0360  -6.0242  -5.0165
    -5.0141  -4.7316  -4.7026  -4.7013   3.8927   5.5466   5.5543   6.0065
     6.5364   6.6743   6.7679   9.9820   9.9903  10.3018  14.1018  14.1642
    14.3153  16.6193

     the Fermi energy is    10.4076 ev

!    total energy              =    -364.95497662 Ry
     Harris-Foulkes estimate   =    -364.95497662 Ry
     estimated scf accuracy    <          2.5E-10 Ry

     The total energy is the sum of the following terms:

     one-electron contribution =     -83.47298207 Ry
     hartree contribution      =      71.13725794 Ry
     xc contribution           =     -85.82718734 Ry
     ewald contribution        =    -266.79818642 Ry
     smearing contrib. (-TS)   =       0.00612127 Ry

     convergence has been achieved in   7 iterations

     Forces acting on atoms (cartesian axes, Ry/au):

     atom    1 type  1   force =     0.00000000   -0.01731009    0.00000000
     atom    2 type  2   force =     0.00000000    0.03070474    0.00000000
     atom    3 type  3   force =     0.00000000   -0.00346842    0.00000000
     atom    4 type  3   force =     0.00000000   -0.00645782    0.00000000
     atom    5 type  3   force =     0.00000000   -0.00346842    0.00000000

     Total force =     0.008109     Total SCF correction =     0.000037


     Computing stress (Cartesian axis) and pressure

          total   stress  (Ry/bohr**3)                   (kbar)     P=   15.27
   0.00002194   0.00000000   0.00000000          3.23      0.00      0.00
   0.00000000   0.00026748   0.00000000          0.00     39.35      0.00
   0.00000000   0.00000000   0.00002194          0.00      0.00      3.23


     number of scf cycles    =   2
     number of bfgs steps    =   1

     energy   old            =    -364.9548863414 Ry
     energy   new            =    -364.9549766246 Ry

     CASE: energy  _new < energy  _old

     new trust radius        =       0.0100328919 bohr
     new conv_thr            =            1.0E-10 Ry


ATOMIC_POSITIONS (crystal)
Pb       0.000000000   0.000000000   0.000000000    0   0   0
Ti       0.500000000   0.455000000   0.500000000    0   0   0
O        0.500000000   0.498930914   0.000000000
O        0.500000000  -0.002557237   0.500000000
O        0.000000000   0.498930914   0.500000000



     Writing output data file PbTiO3.save/
     NEW-OLD atomic charge density approx. for the potential

     Check: negative core charge=   -0.000006

     total cpu time spent up to now is      812.1 secs

     Self-consistent Calculation

     iteration #  1     ecut=    80.00 Ry     beta= 0.70
     Davidson diagonalization with overlap
     ethr =  1.00E-06,  avg # of iterations =  3.2

     Threshold (ethr) on eigenvalues was too large:
     Diagonalizing with lowered threshold

     Davidson diagonalization with overlap
     ethr =  6.03E-08,  avg # of iterations =  1.1

     total cpu time spent up to now is      883.9 secs

     total energy              =    -364.95505680 Ry
     Harris-Foulkes estimate   =    -364.95507390 Ry
     estimated scf accuracy    <       0.00002667 Ry

     iteration #  2     ecut=    80.00 Ry     beta= 0.70
     Davidson diagonalization with overlap
     ethr =  6.06E-08,  avg # of iterations =  3.9

     total cpu time spent up to now is      922.6 secs

     total energy              =    -364.95505074 Ry
     Harris-Foulkes estimate   =    -364.95507818 Ry
     estimated scf accuracy    <       0.00006841 Ry

     iteration #  3     ecut=    80.00 Ry     beta= 0.70
     Davidson diagonalization with overlap
     ethr =  6.06E-08,  avg # of iterations =  3.0

     total cpu time spent up to now is      958.4 secs

     total energy              =    -364.95506495 Ry
     Harris-Foulkes estimate   =    -364.95506733 Ry
     estimated scf accuracy    <       0.00000737 Ry

     iteration #  4     ecut=    80.00 Ry     beta= 0.70
     Davidson diagonalization with overlap
     ethr =  1.67E-08,  avg # of iterations =  2.7

     total cpu time spent up to now is      989.9 secs

     total energy              =    -364.95506598 Ry
     Harris-Foulkes estimate   =    -364.95506612 Ry
     estimated scf accuracy    <       0.00000026 Ry

     iteration #  5     ecut=    80.00 Ry     beta= 0.70
     Davidson diagonalization with overlap
     ethr =  5.94E-10,  avg # of iterations =  3.9

     total cpu time spent up to now is     1029.4 secs

     total energy              =    -364.95506606 Ry
     Harris-Foulkes estimate   =    -364.95506615 Ry
     estimated scf accuracy    <       0.00000022 Ry

     iteration #  6     ecut=    80.00 Ry     beta= 0.70
     Davidson diagonalization with overlap
     ethr =  5.01E-10,  avg # of iterations =  2.8

     total cpu time spent up to now is     1062.3 secs

     total energy              =    -364.95506610 Ry
     Harris-Foulkes estimate   =    -364.95506611 Ry
     estimated scf accuracy    <       0.00000002 Ry

     iteration #  7     ecut=    80.00 Ry     beta= 0.70
     Davidson diagonalization with overlap
     ethr =  3.92E-11,  avg # of iterations =  2.5

     total cpu time spent up to now is     1094.8 secs

     total energy              =    -364.95506611 Ry
     Harris-Foulkes estimate   =    -364.95506611 Ry
     estimated scf accuracy    <          2.5E-10 Ry

     iteration #  8     ecut=    80.00 Ry     beta= 0.70
     Davidson diagonalization with overlap
     ethr =  5.57E-13,  avg # of iterations =  3.9

     total cpu time spent up to now is     1141.1 secs

     End of self-consistent calculation

          k = 0.0500 0.0500 0.0500 (  5047 PWs)   bands (ev):

   -46.1017 -22.4240 -22.3450 -22.3450  -7.2250  -6.2358  -6.1376  -5.0550
    -5.0401  -5.0398  -4.9023  -4.8891   4.4634   6.8170   6.8563   6.9951
     8.8146   8.8416   9.1656   9.2907   9.5253   9.5263  12.4840  12.8890
    12.8948  14.6753

          k = 0.0500 0.0500 0.1500 (  5074 PWs)   bands (ev):

   -46.1015 -22.4236 -22.3556 -22.3446  -7.1433  -6.2020  -6.1077  -5.0627
    -5.0479  -5.0394  -4.9329  -4.8876   4.1673   6.8705   6.9343   7.1748
     8.6005   8.7670   9.1241   9.1844   9.3783   9.5183  12.8021  12.8974
    13.0125  14.8486

          k = 0.0500 0.0500 0.2500 (  5093 PWs)   bands (ev):

   -46.1011 -22.4230 -22.3728 -22.3440  -7.0070  -6.1426  -6.0601  -5.0758
    -5.0605  -5.0386  -4.9893  -4.8825   3.7991   6.8742   7.0488   7.1921
     8.4561   8.5425   9.0456   9.1167   9.3187   9.5864  12.8972  13.2668
    13.3570  14.8505

          k = 0.0500 0.0500 0.3500 (  5090 PWs)   bands (ev):

   -46.1008 -22.4223 -22.3898 -22.3434  -6.8647  -6.0739  -6.0156  -5.0957
    -5.0741  -5.0437  -5.0377  -4.8793   3.5111   6.5226   7.2290   7.3522
     8.1700   8.2787   8.9821   9.0680   9.4299   9.9563  12.8979  13.6875
    13.7614  14.2696

          k = 0.0500 0.0500 0.4500 (  5073 PWs)   bands (ev):

   -46.1006 -22.4219 -22.4003 -22.3430  -6.7731  -6.0197  -5.9959  -5.1237
    -5.0837  -5.0645  -5.0372  -4.8786   3.3616   6.2384   7.4158   7.6037
     7.8879   7.9727   8.9439   9.0791   9.4831  10.3980  12.8873  13.5531
    13.9365  14.0322

          k = 0.0500 0.1500 0.1500 (  5079 PWs)   bands (ev):

   -46.1012 -22.4345 -22.3552 -22.3442  -7.0513  -6.1795  -6.0804  -5.0633
    -5.0580  -5.0463  -4.9251  -4.9076   3.9465   6.8253   6.9329   7.3429
     8.3593   8.5880   8.9717   9.2370   9.3335   9.5960  12.8033  13.1560
    13.2436  14.9753

          k = 0.0500 0.1500 0.2500 (  5077 PWs)   bands (ev):

   -46.1009 -22.4338 -22.3723 -22.3436  -6.9197  -6.1277  -6.0394  -5.0805
    -5.0666  -5.0458  -4.9562  -4.8989   3.6516   6.7818   7.0496   7.2781
     8.1880   8.4084   8.8448   9.1069   9.2863   9.7565  13.1467  13.2735
    13.5284  15.0308

          k = 0.0500 0.1500 0.3500 (  5080 PWs)   bands (ev):

   -46.1006 -22.4331 -22.3893 -22.3430  -6.7847  -6.0750  -5.9941  -5.1002
    -5.0752  -5.0454  -4.9836  -4.8951   3.4048   6.5081   7.1535   7.3332
     7.9368   8.2360   8.7909   9.1110   9.2692  10.0065  13.1479  13.6827
    13.8804  14.4333

          k = 0.0500 0.1500 0.4500 (  5079 PWs)   bands (ev):

   -46.1003 -22.4327 -22.3998 -22.3426  -6.6996  -6.0420  -5.9628  -5.1156
    -5.0832  -5.0450  -4.9927  -4.8974   3.2719   6.2426   7.2663   7.4930
     7.7686   7.9704   8.8318   9.1714   9.2414  10.2078  13.1310  13.9198
    13.9546  14.1237

          k = 0.0500 0.2500 0.2500 (  5076 PWs)   bands (ev):

   -46.1006 -22.4512 -22.3716 -22.3429  -6.7779  -6.1065  -5.9960  -5.0852
    -5.0701  -5.0534  -4.9315  -4.9127   3.4283   6.6590   7.0555   7.1899
     7.9706   8.1204   8.6148   9.0664   9.4710   9.8965  13.2493  13.5564
    13.8048  15.0003

          k = 0.0500 0.2500 0.3500 (  5080 PWs)   bands (ev):

   -46.1002 -22.4505 -22.3885 -22.3423  -6.6649  -6.0722  -5.9404  -5.0949
    -5.0743  -5.0547  -4.9422  -4.8914   3.2362   6.4749   6.9344   7.2659
     7.7516   8.0872   8.5062   8.9051   9.5830   9.9094  13.5293  13.6776
    14.0694  14.7220

          k = 0.0500 0.2500 0.4500 (  5084 PWs)   bands (ev):

   -46.1000 -22.4500 -22.3990 -22.3419  -6.6003  -6.0485  -5.8982  -5.1018
    -5.0816  -5.0559  -4.9355  -4.8878   3.1275   6.2417   6.9643   7.2586
     7.6694   8.0792   8.4414   8.9032   9.6003   9.8850  13.5287  13.9095
    14.2654  14.5370

          k = 0.0500 0.3500 0.3500 (  5079 PWs)   bands (ev):

   -46.0999 -22.4677 -22.3877 -22.3416  -6.5695  -6.0332  -5.8811  -5.0934
    -5.0770  -5.0575  -4.9645  -4.8338   3.0735   6.3059   6.6636   7.2659
     7.6564   7.9493   8.3909   8.8271   9.5697   9.9423  13.6433  13.9306
    14.2653  15.0278

          k = 0.0500 0.3500 0.4500 (  5079 PWs)   bands (ev):

   -46.0997 -22.4672 -22.3981 -22.3412  -6.5400  -5.9981  -5.8268  -5.0948
    -5.0802  -5.0608  -4.9727  -4.7995   2.9850   6.1794   6.5347   7.3166
     7.4958   8.1180   8.2882   8.7169   9.3727  10.0234  13.8809  13.9279
    14.4286  15.0922

          k = 0.0500 0.4500 0.4500 (  5100 PWs)   bands (ev):

   -46.0994 -22.4778 -22.3976 -22.3408  -6.5247  -5.9364  -5.7786  -5.0969
    -5.0794  -5.0614  -4.9966  -4.7486   2.8984   6.0023   6.4126   7.3165
     7.4475   8.0739   8.3357   8.6334   9.0585  10.2009  13.8692  14.1642
    14.5425  15.4452

          k = 0.1500 0.1500 0.1500 (  5095 PWs)   bands (ev):

   -46.1010 -22.4341 -22.3549 -22.3547  -6.9747  -6.1552  -6.0571  -5.0719
    -5.0638  -5.0456  -4.9210  -4.9094   3.7977   6.8020   6.8464   7.4556
     8.2029   8.3364   8.9594   9.2982   9.4198   9.4780  13.0298  13.2284
    13.2570  15.4693

          k = 0.1500 0.1500 0.2500 (  5084 PWs)   bands (ev):

   -46.1007 -22.4334 -22.3719 -22.3542  -6.8505  -6.1143  -6.0170  -5.0871
    -5.0647  -5.0418  -4.9377  -4.8990   3.5722   6.7425   6.8423   7.3064
     7.9752   8.1405   8.9713   9.2199   9.3918   9.6606  13.1948  13.4025
    13.5235  15.1439

          k = 0.1500 0.1500 0.3500 (  5082 PWs)   bands (ev):

   -46.1003 -22.4327 -22.3889 -22.3535  -6.7273  -6.0714  -5.9724  -5.1001
    -5.0576  -5.0351  -4.9612  -4.8951   3.3676   6.5076   6.8474   7.1886
     7.7671   8.1941   8.7097   9.2791   9.4047   9.8743  13.1369  13.7357
    13.8698  14.6352

          k = 0.1500 0.1500 0.4500 (  5084 PWs)   bands (ev):

   -46.1001 -22.4322 -22.3993 -22.3531  -6.6527  -6.0439  -5.9409  -5.1054
    -5.0524  -5.0271  -4.9778  -4.8986   3.2524   6.2487   6.8435   7.2381
     7.6696   8.3090   8.4630   9.3463   9.3918   9.9833  13.0739  13.9551
    14.1071  14.3913

          k = 0.1500 0.2500 0.2500 (  5081 PWs)   bands (ev):

   -46.1003 -22.4508 -22.3711 -22.3535  -6.7063  -6.0983  -5.9986  -5.0892
    -5.0735  -5.0284  -4.9123  -4.8952   3.4209   6.6010   6.7167   7.1287
     7.6754   7.9548   8.9132   9.2478   9.5120   9.7439  13.2891  13.5632
    13.7566  14.9433

          k = 0.1500 0.2500 0.3500 (  5080 PWs)   bands (ev):

   -46.1000 -22.4500 -22.3881 -22.3528  -6.5977  -6.0823  -5.9494  -5.0922
    -5.0633  -5.0174  -4.9155  -4.8759   3.2797   6.4499   6.6725   6.8919
     7.3878   7.9984   8.9143   9.1063   9.5822   9.7485  13.3947  13.7066
    14.0061  14.8988

          k = 0.1500 0.2500 0.4500 (  5077 PWs)   bands (ev):

[...]
    -5.0391  -4.9606  -4.8490  -4.8338   3.4143   6.4803   6.4805   7.0383
     7.3499   7.3847   9.2469   9.4442   9.4526   9.6818  13.2719  13.5670
    13.5894  14.9686

          k = 0.2500 0.2500 0.3500 (  5072 PWs)   bands (ev):

   -46.2411 -22.5293 -22.5220 -22.5116  -6.4960  -6.0787  -6.0234  -5.0371
    -5.0218  -4.9222  -4.8303  -4.8153   3.3496   6.2791   6.3700   6.6101
     7.1936   7.3203   8.9423   9.5076   9.5587   9.7911  13.2881  13.7068
    13.8596  15.1743

          k = 0.2500 0.2500 0.4500 (  5073 PWs)   bands (ev):

   -46.2409 -22.5398 -22.5216 -22.5111  -6.4397  -6.0876  -5.9823  -5.0336
    -5.0106  -4.8823  -4.8329  -4.8065   3.3014   6.1369   6.1666   6.4931
     7.1613   7.3614   8.6866   9.4987   9.5836   9.8460  13.3222  13.8658
    14.0644  15.4666

          k = 0.2500 0.3500 0.3500 (  5057 PWs)   bands (ev):

   -46.2408 -22.5390 -22.5286 -22.5109  -6.4056  -6.0659  -6.0228  -5.0253
    -5.0050  -4.8789  -4.8111  -4.7602   3.3804   6.1059   6.1665   6.4175
     6.7448   7.2186   8.5174   9.6023   9.6367   9.9640  13.4700  13.7783
    14.0141  15.5024

          k = 0.2500 0.3500 0.4500 (  5063 PWs)   bands (ev):

   -46.2406 -22.5391 -22.5385 -22.5105  -6.3742  -6.0590  -5.9952  -5.0198
    -4.9898  -4.8426  -4.8067  -4.7275   3.3791   5.9727   6.1270   6.1580
     6.6496   7.2245   8.1568   9.6159   9.6522  10.0748  13.6264  13.8562
    14.1680  15.8726

          k = 0.2500 0.4500 0.4500 (  5070 PWs)   bands (ev):

   -46.2403 -22.5489 -22.5386 -22.5100  -6.3667  -6.0092  -5.9978  -5.0144
    -4.9719  -4.8163  -4.7937  -4.6785   3.4127   5.9551   6.0067   6.0385
     6.3594   7.2178   7.7286   9.6469   9.6544  10.2330  13.8331  13.8968
    14.2849  16.2071

          k = 0.3500 0.3500 0.3500 (  5055 PWs)   bands (ev):

   -46.2404 -22.5383 -22.5280 -22.5278  -6.2874  -6.0786  -6.0744  -4.9992
    -4.9964  -4.8038  -4.7406  -4.7263   3.5510   5.8314   5.8386   6.3179
     6.6786   6.6834   7.8689   9.8875   9.8937  10.0131  13.6307  13.9773
    13.9949  15.8860

          k = 0.3500 0.3500 0.4500 (  5056 PWs)   bands (ev):

   -46.2402 -22.5383 -22.5378 -22.5274  -6.2475  -6.1052  -6.0488  -4.9934
    -4.9813  -4.7474  -4.7213  -4.6908   3.6510   5.6411   5.7867   6.0753
     6.5595   6.6719   7.3866   9.9387   9.9876  10.1070  13.8214  13.9847
    14.1551  16.2849

          k = 0.3500 0.4500 0.4500 (  5051 PWs)   bands (ev):

   -46.2400 -22.5482 -22.5379 -22.5270  -6.2218  -6.0816  -6.0716  -4.9861
    -4.9685  -4.7061  -4.6825  -4.6412   3.8550   5.5440   5.5881   5.9557
     6.3457   6.6207   6.8183  10.0421  10.0473  10.2261  13.9940  14.0571
    14.2414  16.6548

          k = 0.4500 0.4500 0.4500 (  5034 PWs)   bands (ev):

   -46.2398 -22.5478 -22.5374 -22.5374  -6.1379  -6.1160  -6.1118  -4.9691
    -4.9665  -4.6408  -4.6192  -4.6139   4.2826   5.3595   5.3664   5.8461
     6.0806   6.3437   6.3544  10.2134  10.2139  10.2300  14.1618  14.2108
    14.2223  17.0232

          k =-0.0500 0.1500 0.0500 (  5074 PWs)   bands (ev):

   -46.2429 -22.5078 -22.4862 -22.4862  -7.1575  -6.1877  -6.1789  -5.0172
    -5.0151  -5.0105  -4.8875  -4.8692   4.2027   6.8590   6.8758   7.1739
     8.8006   8.8437   9.1908   9.2628   9.5142   9.5215  12.3719  12.7762
    12.7785  14.4992

          k =-0.0500 0.2500 0.0500 (  5093 PWs)   bands (ev):

   -46.2425 -22.5251 -22.4856 -22.4856  -7.0135  -6.1353  -6.1290  -5.0324
    -5.0249  -5.0096  -4.9422  -4.8612   3.8406   6.8511   7.0031   7.1356
     8.4629   8.5257   9.1371   9.2421   9.5369   9.6386  12.3749  13.2359
    13.2440  14.4999

          k =-0.0500 0.3500 0.0500 (  5090 PWs)   bands (ev):

   -46.2422 -22.5422 -22.4850 -22.4849  -6.8625  -6.0803  -6.0771  -5.0529
    -5.0337  -5.0087  -4.9972  -4.8550   3.5584   6.4519   7.1711   7.2705
     8.1264   8.1759   9.0711   9.3929   9.5798  10.0255  12.3768  13.6622
    13.6709  14.3342

          k =-0.0500 0.4500 0.0500 (  5073 PWs)   bands (ev):

   -46.2420 -22.5527 -22.4846 -22.4846  -6.7649  -6.0514  -6.0374  -5.0757
    -5.0386  -5.0248  -5.0081  -4.8520   3.4136   6.1272   7.3362   7.5007
     7.8546   7.8717   9.0289   9.4661   9.6117  10.4660  12.3753  13.6068
    13.9164  13.9255

          k = 0.1500 0.0500 0.1500 (  5079 PWs)   bands (ev):

   -46.2427 -22.4972 -22.4968 -22.4963  -7.0733  -6.1587  -6.1556  -5.0317
    -5.0171  -5.0125  -4.8989  -4.8624   3.9760   6.8046   6.9605   7.3342
     8.5114   8.6359   9.1381   9.3108   9.3142   9.5434  12.7306  12.7814
    12.9527  14.8191

          k =-0.0500 0.2500 0.1500 (  5077 PWs)   bands (ev):

   -46.2423 -22.5246 -22.4963 -22.4852  -6.9356  -6.1251  -6.0962  -5.0416
    -5.0239  -5.0162  -4.9118  -4.8755   3.6928   6.7653   7.0270   7.2476
     8.1665   8.4554   8.8606   9.3032   9.3653   9.7496  12.7010  13.2409
    13.3937  14.8230

          k = 0.2500 0.0500 0.1500 (  5077 PWs)   bands (ev):

   -46.2423 -22.5142 -22.4963 -22.4956  -6.9349  -6.1212  -6.1035  -5.0495
    -5.0215  -5.0123  -4.9191  -4.8620   3.6772   6.7606   7.0419   7.2667
     8.1796   8.4188   8.8992   9.3141   9.3568   9.7143  12.7507  13.2121
    13.3487  14.8753

          k =-0.0500 0.3500 0.1500 (  5080 PWs)   bands (ev):

   -46.2420 -22.5417 -22.4956 -22.4845  -6.7949  -6.0790  -6.0440  -5.0595
    -5.0291  -5.0161  -4.9429  -4.8697   3.4497   6.4427   7.0919   7.2996
     7.8786   8.1996   8.8666   9.3135   9.3754  10.0508  12.6957  13.6660
    13.7730  14.5068

          k = 0.3500 0.0500 0.1500 (  5080 PWs)   bands (ev):

   -46.2420 -22.5313 -22.4957 -22.4950  -6.7935  -6.0783  -6.0512  -5.0689
    -5.0206  -5.0118  -4.9482  -4.8597   3.4287   6.4398   7.0942   7.3325
     7.8922   8.2312   8.8123   9.3074   9.3988  10.0189  12.7404  13.6407
    13.7350  14.5378

          k =-0.0500 0.4500 0.1500 (  5079 PWs)   bands (ev):

   -46.2418 -22.5522 -22.4952 -22.4842  -6.7070  -6.0437  -6.0139  -5.0739
    -5.0341  -5.0159  -4.9561  -4.8697   3.3198   6.1329   7.1895   7.4376
     7.7354   7.9155   8.9482   9.2952   9.4005  10.2843  12.6835  13.9187
    13.9646  14.0624

          k = 0.4500 0.0500 0.1500 (  5079 PWs)   bands (ev):

   -46.2418 -22.5419 -22.4952 -22.4946  -6.7051  -6.0467  -6.0199  -5.0820
    -5.0186  -5.0125  -4.9648  -4.8612   3.2962   6.1310   7.1926   7.4538
     7.7716   7.9569   8.8613   9.2742   9.4442  10.2609  12.7214  13.9001
    13.9711  14.0523

          k = 0.2500 0.0500 0.2500 (  5076 PWs)   bands (ev):

   -46.2420 -22.5137 -22.5132 -22.4951  -6.8123  -6.0975  -6.0489  -5.0542
    -5.0264  -5.0098  -4.8901  -4.8820   3.4561   6.7043   7.0042   7.2197
     7.9777   8.0443   8.7705   9.0883   9.5660   9.8096  13.1561  13.2480
    13.6398  14.9907

          k =-0.0500 0.3500 0.2500 (  5080 PWs)   bands (ev):

   -46.2417 -22.5409 -22.5127 -22.4839  -6.7002  -6.0570  -5.9836  -5.0539
    -5.0309  -5.0217  -4.9082  -4.8605   3.2786   6.4384   6.8876   7.2414
     7.7591   8.0689   8.4755   9.0333   9.6409   9.9352  13.1615  13.6636
    13.9706  14.7692

          k = 0.3500 0.0500 0.2500 (  5080 PWs)   bands (ev):

   -46.2416 -22.5305 -22.5127 -22.4944  -6.6985  -6.0569  -5.9932  -5.0614
    -5.0255  -5.0068  -4.8989  -4.8709   3.2560   6.4429   6.8818   7.2508
     7.7459   8.0390   8.5440   9.0682   9.6401   9.9065  13.1812  13.6351
    13.9431  14.7898

          k =-0.0500 0.4500 0.2500 (  5084 PWs)   bands (ev):

   -46.2414 -22.5514 -22.5123 -22.4835  -6.6381  -6.0140  -5.9509  -5.0618
    -5.0318  -5.0259  -4.9054  -4.8563   3.1693   6.1404   6.9390   7.1927
     7.7533   7.9931   8.4029   9.0617   9.6086   9.9964  13.1532  13.9175
    14.1610  14.6118

          k = 0.4500 0.0500 0.2500 (  5084 PWs)   bands (ev):

   -46.2414 -22.5410 -22.5123 -22.4940  -6.6357  -6.0175  -5.9603  -5.0671
    -5.0217  -5.0109  -4.8948  -4.8715   3.1431   6.1422   6.9450   7.1731
     7.7446   8.0415   8.3931   9.1154   9.6020   9.9741  13.1686  13.8939
    14.1424  14.6240

          k = 0.3500 0.0500 0.3500 (  5079 PWs)   bands (ev):

   -46.2413 -22.5299 -22.5296 -22.4938  -6.6293  -5.9981  -5.9329  -5.0577
    -5.0263  -5.0006  -4.9168  -4.8232   3.0905   6.4135   6.4956   7.2736
     7.5628   7.9706   8.5100   8.8138   9.6248   9.9496  13.5796  13.6575
    14.1724  15.0199

          k =-0.0500 0.4500 0.3500 (  5079 PWs)   bands (ev):

   -46.2411 -22.5505 -22.5293 -22.4828  -6.6045  -5.9329  -5.8829  -5.0545
    -5.0357  -5.0243  -4.9389  -4.7728   3.0215   6.1279   6.4942   7.2581
     7.5738   8.0617   8.2502   8.7446   9.4230  10.0870  13.5951  13.9145
    14.3560  15.1259

          k = 0.4500 0.0500 0.3500 (  5079 PWs)   bands (ev):

   -46.2411 -22.5402 -22.5292 -22.4934  -6.6013  -5.9384  -5.8967  -5.0579
    -5.0201  -5.0045  -4.9291  -4.7924   2.9924   6.1289   6.5028   7.2105
     7.5098   8.1206   8.3281   8.7875   9.4115  10.0857  13.6092  13.8862
    14.3383  15.1344

          k = 0.4500 0.0500 0.4500 (  5100 PWs)   bands (ev):

   -46.2409 -22.5397 -22.5397 -22.4930  -6.5953  -5.8668  -5.8553  -5.0554
    -5.0097  -5.0012  -4.9590  -4.7458   2.9009   6.0248   6.3229   7.2818
     7.3162   8.2474   8.3738   8.5595   9.1187  10.2510  13.8737  13.8862
    14.4825  15.3614

          k =-0.1500 0.2500 0.1500 (  5084 PWs)   bands (ev):

   -46.2421 -22.5242 -22.4960 -22.4957  -6.8564  -6.1092  -6.0843  -5.0485
    -5.0308  -5.0061  -4.8886  -4.8744   3.6055   6.7390   6.8152   7.2967
     7.9914   8.1559   8.9394   9.3555   9.4464   9.6166  12.9175  13.3684
    13.3800  15.1898

          k =-0.1500 0.3500 0.1500 (  5082 PWs)   bands (ev):

   -46.2418 -22.5412 -22.4953 -22.4951  -6.7221  -6.0792  -6.0321  -5.0630
    -5.0253  -4.9959  -4.9111  -4.8691   3.4037   6.4443   6.8079   7.1693
     7.7687   8.2047   8.6461   9.4072   9.4640   9.8931  12.8572  13.7393
    13.7443  14.6752

          k =-0.1500 0.4500 0.1500 (  5084 PWs)   bands (ev):

   -46.2416 -22.5517 -22.4948 -22.4947  -6.6402  -6.0601  -5.9956  -5.0697
    -5.0219  -4.9837  -4.9280  -4.8714   3.2910   6.1388   6.7956   7.2289
     7.6616   8.2578   8.4806   9.4322   9.4650  10.0340  12.7966  13.9647
    13.9826  14.4379

          k = 0.2500 0.1500 0.2500 (  5081 PWs)   bands (ev):

   -46.2418 -22.5132 -22.5128 -22.5056  -6.7317  -6.0877  -6.0561  -5.0525
    -5.0340  -4.9891  -4.8732  -4.8609   3.4473   6.6373   6.7467   7.1052
     7.6353   7.8890   9.1351   9.1792   9.5977   9.6160  13.2361  13.3592
    13.5821  14.9753

          k =-0.1500 0.3500 0.2500 (  5080 PWs)   bands (ev):

   -46.2414 -22.5404 -22.5123 -22.4945  -6.6186  -6.0694  -6.0002  -5.0545
    -5.0291  -4.9739  -4.8784  -4.8453   3.3152   6.4279   6.6521   6.8397
     7.4407   7.9064   8.8176   9.2691   9.6238   9.7577  13.1675  13.6798
    13.8924  14.9172

          k = 0.3500 0.1500 0.2500 (  5080 PWs)   bands (ev):

   -46.2414 -22.5301 -22.5123 -22.5050  -6.6171  -6.0691  -6.0077  -5.0549
    -5.0262  -4.9679  -4.8692  -4.8544   3.2968   6.4315   6.6543   6.8483
     7.4256   7.9070   8.8621   9.2829   9.6027   9.7483  13.1947  13.6650
    13.8628  14.9299

          k =-0.1500 0.4500 0.2500 (  5077 PWs)   bands (ev):

   -46.2412 -22.5509 -22.5118 -22.4941  -6.5569  -6.0520  -5.9620  -5.0557
    -5.0231  -4.9583  -4.8822  -4.8414   3.2294   6.1435   6.5764   6.8261
     7.3889   7.9956   8.6125   9.3344   9.5483   9.8124  13.1283  13.9142
    14.0924  14.9851

          k = 0.4500 0.1500 0.2500 (  5077 PWs)   bands (ev):

   -46.2412 -22.5406 -22.5118 -22.5046  -6.5547  -6.0549  -5.9693  -5.0547
    -5.0193  -4.9486  -4.8703  -4.8559   3.2063   6.1448   6.5778   6.8386
     7.3789   7.9925   8.6542   9.3520   9.5256   9.8060  13.1572  13.8974
    14.0657  15.0019

          k = 0.3500 0.1500 0.3500 (  5081 PWs)   bands (ev):

   -46.2411 -22.5294 -22.5292 -22.5043  -6.5417  -6.0285  -5.9719  -5.0474
    -5.0154  -4.9456  -4.8719  -4.8076   3.1925   6.4103   6.4301   6.6369
     7.0264   7.8812   8.9063   9.1131   9.3975   9.9538  13.4955  13.6763
    14.0611  15.2025

          k =-0.1500 0.4500 0.3500 (  5079 PWs)   bands (ev):

   -46.2409 -22.5501 -22.5288 -22.4934  -6.5162  -5.9881  -5.9284  -5.0463
    -5.0074  -4.9419  -4.8989  -4.7575   3.1506   6.1248   6.4375   6.5609
     6.9411   7.9150   8.7067   9.1138   9.2102  10.0761  13.5344  13.8739
    14.2444  15.4647

          k = 0.4500 0.1500 0.3500 (  5079 PWs)   bands (ev):

   -46.2409 -22.5398 -22.5288 -22.5039  -6.5129  -5.9924  -5.9389  -5.0438
    -5.0024  -4.9291  -4.8830  -4.7772   3.1237   6.1262   6.4479   6.5551
     6.9263   7.9228   8.7259   9.1360   9.2221  10.0776  13.5568  13.8541
    14.2221  15.4773

          k = 0.4500 0.1500 0.4500 (  5073 PWs)   bands (ev):

   -46.2407 -22.5393 -22.5392 -22.5035  -6.5068  -5.9297  -5.9193  -5.0389
    -4.9793  -4.9156  -4.9022  -4.7301   3.0653   6.0176   6.3132   6.6052
     6.6613   7.9377   8.5459   9.0640   9.0862  10.2455  13.8184  13.8480
    14.3529  15.7899

          k =-0.2500 0.3500 0.2500 (  5072 PWs)   bands (ev):

   -46.2411 -22.5397 -22.5117 -22.5115  -6.4969  -6.0801  -6.0184  -5.0385
    -5.0224  -4.9235  -4.8344  -4.8121   3.3598   6.2838   6.3571   6.6064
     7.2248   7.2940   8.9292   9.5215   9.5509   9.7925  13.2627  13.7183
    13.8771  15.1685

          k =-0.2500 0.4500 0.2500 (  5073 PWs)   bands (ev):

   -46.2409 -22.5501 -22.5113 -22.5110  -6.4412  -6.0878  -5.9762  -5.0361
    -5.0118  -4.8833  -4.8412  -4.8006   3.3178   6.1449   6.1565   6.4769
     7.1845   7.3426   8.6782   9.5007   9.5841   9.8467  13.2839  13.8894
    14.0816  15.4522

          k = 0.3500 0.2500 0.3500 (  5057 PWs)   bands (ev):

   -46.2408 -22.5287 -22.5285 -22.5213  -6.4035  -6.0663  -6.0283  -5.0230
    -5.0057  -4.8714  -4.7979  -4.7768   3.3675   6.1126   6.1711   6.4133
     6.7402   7.2236   8.5140   9.6206   9.6369   9.9649  13.4755  13.7877
    13.9914  15.5058

          k =-0.2500 0.4500 0.3500 (  5063 PWs)   bands (ev):

   -46.2406 -22.5494 -22.5281 -22.5105  -6.3744  -6.0626  -5.9898  -5.0208
    -4.9903  -4.8406  -4.8100  -4.7271   3.3861   5.9783   6.1257   6.1445
     6.6535   7.2207   8.1597   9.6103   9.6573  10.0742  13.5884  13.8881
    14.1733  15.8626

          k = 0.4500 0.2500 0.3500 (  5063 PWs)   bands (ev):

   -46.2406 -22.5390 -22.5281 -22.5209  -6.3709  -6.0644  -5.9976  -5.0176
    -4.9908  -4.8274  -4.7983  -4.7456   3.3644   5.9826   6.1211   6.1610
     6.6480   7.2269   8.1513   9.6279   9.6656  10.0762  13.6179  13.8740
    14.1501  15.8746

          k = 0.4500 0.2500 0.4500 (  5070 PWs)   bands (ev):

   -46.2403 -22.5386 -22.5385 -22.5205  -6.3621  -6.0139  -6.0048  -5.0113
    -4.9731  -4.7950  -4.7847  -4.6999   3.3872   5.9640   6.0177   6.0349
     6.3598   7.2208   7.7171   9.6665   9.6685  10.2366  13.8486  13.8953
    14.2620  16.2147

          k =-0.3500 0.4500 0.3500 (  5056 PWs)   bands (ev):

   -46.2402 -22.5487 -22.5275 -22.5274  -6.2495  -6.1072  -6.0426  -4.9958
    -4.9798  -4.7575  -4.7210  -4.6836   3.6628   5.6456   5.7674   6.0783
     6.5623   6.6661   7.3940   9.9390   9.9792  10.1062  13.7932  14.0006
    14.1688  16.2753

          k = 0.4500 0.3500 0.4500 (  5051 PWs)   bands (ev):

   -46.2400 -22.5379 -22.5379 -22.5374  -6.2168  -6.0840  -6.0765  -4.9836
    -4.9704  -4.6895  -4.6767  -4.6605   3.8375   5.5628   5.5930   5.9497
     6.3532   6.6188   6.8074  10.0481  10.0514  10.2281  14.0102  14.0623
    14.2178  16.6617

     the Fermi energy is    10.4107 ev

!    total energy              =    -364.95588640 Ry
     Harris-Foulkes estimate   =    -364.95588640 Ry
     estimated scf accuracy    <          6.0E-12 Ry

     The total energy is the sum of the following terms:

     one-electron contribution =     -83.46554500 Ry
     hartree contribution      =      71.09536709 Ry
     xc contribution           =     -85.80883584 Ry
     ewald contribution        =    -266.78307467 Ry
     smearing contrib. (-TS)   =       0.00620202 Ry

     convergence has been achieved in  10 iterations

     Forces acting on atoms (cartesian axes, Ry/au):

     atom    1 type  1   force =     0.00000000   -0.01001758    0.00000000
     atom    2 type  2   force =     0.00000000    0.01077730    0.00000000
     atom    3 type  3   force =     0.00000000   -0.00087185    0.00000000
     atom    4 type  3   force =     0.00000000    0.00098398    0.00000000
     atom    5 type  3   force =     0.00000000   -0.00087185    0.00000000

     Total force =     0.001577     Total SCF correction =     0.000003


     Computing stress (Cartesian axis) and pressure

          total   stress  (Ry/bohr**3)                   (kbar)     P=    5.49
   0.00002997   0.00000000   0.00000000          4.41      0.00      0.00
   0.00000000   0.00005211   0.00000000          0.00      7.67      0.00
   0.00000000   0.00000000   0.00002997          0.00      0.00      4.41


     bfgs converged in   9 scf cycles and   8 bfgs steps
     (criteria: energy <  1.0E-04 Ry, force <  1.0E-03 Ry/Bohr)

     End of BFGS Geometry Optimization

     Final energy   =    -364.9558863970 Ry
Begin final coordinates

ATOMIC_POSITIONS (crystal)
Pb       0.000000000   0.000000000   0.000000000    0   0   0
Ti       0.500000000   0.455000000   0.500000000    0   0   0
O        0.500000000   0.469445209   0.000000000
O        0.500000000  -0.024877319   0.500000000
O        0.000000000   0.469445209   0.500000000
End final coordinates



     Writing output data file PbTiO3.save/

     init_run     :     13.12s CPU     15.64s WALL (       1 calls)
     electrons    :   2374.75s CPU   3217.36s WALL (       9 calls)
     update_pot   :      3.11s CPU      3.24s WALL (       8 calls)
     forces       :     47.26s CPU     53.14s WALL (       9 calls)
     stress       :    123.18s CPU    133.60s WALL (       9 calls)

     Called by init_run:
     wfcinit      :     10.18s CPU     12.40s WALL (       1 calls)
     potinit      :      0.27s CPU      0.29s WALL (       1 calls)
     hinit0       :      1.98s CPU      1.99s WALL (       1 calls)

     Called by electrons:
     c_bands      :   2035.37s CPU   2701.48s WALL (      85 calls)
     sum_band     :    270.07s CPU    422.69s WALL (      85 calls)
     v_of_rho     :     18.86s CPU     20.25s WALL (      92 calls)
     newd         :     54.96s CPU     79.36s WALL (      92 calls)
     mix_rho      :      1.72s CPU      1.96s WALL (      85 calls)

     Called by c_bands:
     init_us_2    :     35.02s CPU     43.79s WALL (   14175 calls)
     cegterg      :   1932.90s CPU   2591.95s WALL (    6375 calls)

     Called by sum_band:
     sum_band:bec :      0.37s CPU      0.51s WALL (    6375 calls)
     addusdens    :     70.03s CPU     92.71s WALL (      85 calls)

     Called by *egterg:
     h_psi        :   1070.36s CPU   1650.87s WALL (   28075 calls)
     s_psi        :    204.87s CPU    223.58s WALL (   28075 calls)
     g_psi        :     18.78s CPU     23.76s WALL (   21625 calls)
     cdiaghg      :     37.34s CPU     48.41s WALL (   27250 calls)

     Called by h_psi:
     h_psi:pot    :   1066.14s CPU   1644.39s WALL (   28075 calls)
     h_psi:calbec :    201.78s CPU    223.21s WALL (   28075 calls)
     vloc_psi     :    654.36s CPU   1196.39s WALL (   28075 calls)
     add_vuspsi   :    208.34s CPU    222.81s WALL (   28075 calls)

     General routines
     calbec       :    313.21s CPU    344.00s WALL (   37825 calls)
     fft          :      8.65s CPU      9.50s WALL (    1413 calls)
     ffts         :      0.23s CPU      0.32s WALL (     177 calls)
     fftw         :    680.43s CPU   1254.65s WALL ( 1080078 calls)
     interpolate  :      0.80s CPU      0.95s WALL (      92 calls)

     Parallel routines

     PWSCF        :  42m47.59s CPU  57m11.37s WALL


   This run was terminated on:   2: 4:11  14May2020            

=------------------------------------------------------------------------------=
   JOB DONE.
=------------------------------------------------------------------------------=
