
     Program PWSCF v.6.4.1 starts on 14May2020 at 13:57:16 

     This program is part of the open-source Quantum ESPRESSO suite
     for quantum simulation of materials; please cite
         "P. Giannozzi et al., J. Phys.:Condens. Matter 21 395502 (2009);
         "P. Giannozzi et al., J. Phys.:Condens. Matter 29 465901 (2017);
          URL http://www.quantum-espresso.org", 
     in publications or presentations arising from this work. More details at
     http://www.quantum-espresso.org/quote

     Parallel version (MPI), running on     1 processors

     MPI processes distributed on     1 nodes
     Reading input from PTO_7.45_10_0.548.pw.in
Warning: card  &CELL ignored
Warning: card   CELL_DYNAMICS = 'BFGS', ignored
Warning: card  / ignored

     Current dimensions of program PWSCF are:
     Max number of different atomic species (ntypx) = 10
     Max number of k-points (npk) =  40000
     Max angular momentum in pseudopotentials (lmaxx) =  3
     Message from routine read_upf::
     Pseudo file Pb.pbe-dn-rrkjus_psl.0.2.2.UPF has been fixed on the fly.
To avoid this message in the future, permanently fix 
 your pseudo files following these instructions: 
https://gitlab.com/QEF/q-e/blob/master/upftools/how_to_fix_upf.md
     Message from routine read_upf::
     Pseudo file O.pbe-n-rrkjus_psl.0.1.UPF has been fixed on the fly.
To avoid this message in the future, permanently fix 
 your pseudo files following these instructions: 
https://gitlab.com/QEF/q-e/blob/master/upftools/how_to_fix_upf.md
               file Pb.pbe-dn-rrkjus_psl.0.2.2.UPF: wavefunction(s)  6S renormalized

     Subspace diagonalization in iterative solution of the eigenvalue problem:
     a serial algorithm will be used


     G-vector sticks info
     --------------------
     sticks:   dense  smooth     PW     G-vecs:    dense   smooth      PW
     Sum        3529    1413    405               157923    39847    6187



     bravais-lattice index     =            1
     lattice parameter (alat)  =       7.4500  a.u.
     unit-cell volume          =     413.4936 (a.u.)^3
     number of atoms/cell      =            5
     number of atomic types    =            3
     number of electrons       =        44.00
     number of Kohn-Sham states=           26
     kinetic-energy cutoff     =      80.0000  Ry
     charge density cutoff     =     800.0000  Ry
     convergence threshold     =      1.0E-08
     mixing beta               =       0.7000
     number of iterations used =            8  plain     mixing
     Exchange-correlation      = PBE ( 1  4  3  4 0 0)
     nstep                     =           50


     celldm(1)=   7.450000  celldm(2)=   0.000000  celldm(3)=   0.000000
     celldm(4)=   0.000000  celldm(5)=   0.000000  celldm(6)=   0.000000

     crystal axes: (cart. coord. in units of alat)
               a(1) = (   1.000000   0.000000   0.000000 )  
               a(2) = (   0.000000   1.000000   0.000000 )  
               a(3) = (   0.000000   0.000000   1.000000 )  

     reciprocal axes: (cart. coord. in units 2 pi/alat)
               b(1) = (  1.000000  0.000000  0.000000 )  
               b(2) = (  0.000000  1.000000  0.000000 )  
               b(3) = (  0.000000  0.000000  1.000000 )  


     PseudoPot. # 1 for Pb read from file:
     ./Pb.pbe-dn-rrkjus_psl.0.2.2.UPF
     MD5 check sum: 7afc420059c37d6888fc09c0f121e83f
     Pseudo is Ultrasoft + core correction, Zval = 14.0
     Generated using "atomic" code by A. Dal Corso v.5.0.2 svn rev. 9415
     Using radial grid of 1281 points,  6 beta functions with: 
                l(1) =   0
                l(2) =   0
                l(3) =   1
                l(4) =   1
                l(5) =   2
                l(6) =   2
     Q(r) pseudized with 0 coefficients 


     PseudoPot. # 2 for Ti read from file:
     ./Ti.pbe-sp-van_ak.UPF
     MD5 check sum: 8e4df49b7f0d34bbd5052bf3f5ea0213
     Pseudo is Ultrasoft, Zval = 12.0
     Generated by new atomic code, or converted to UPF format
     Using radial grid of  851 points,  6 beta functions with: 
                l(1) =   0
                l(2) =   0
                l(3) =   1
                l(4) =   1
                l(5) =   2
                l(6) =   2
     Q(r) pseudized with  8 coefficients,  rinner =    1.000   1.000   1.000
                                                       1.000   1.000

     PseudoPot. # 3 for O  read from file:
     ./O.pbe-n-rrkjus_psl.0.1.UPF
     MD5 check sum: e057bbcf3229fb5d8c36c0c92f9568b4
     Pseudo is Ultrasoft + core correction, Zval =  6.0
     Generated using "atomic" code by A. Dal Corso v.5.0.2 svn rev. 9415
     Using radial grid of 1095 points,  4 beta functions with: 
                l(1) =   0
                l(2) =   0
                l(3) =   1
                l(4) =   1
     Q(r) pseudized with 0 coefficients 


     atomic species   valence    mass     pseudopotential
        Pb            14.00   207.20000     Pb( 1.00)
        Ti            12.00    47.87000     Ti( 1.00)
        O              6.00    16.00000     O ( 1.00)

      8 Sym. Ops. (no inversion) found



   Cartesian axes

     site n.     atom                  positions (alat units)
         1           Pb  tau(   1) = (   0.0000000   0.0000000   0.0000000  )
         2           Ti  tau(   2) = (   0.5000000   0.5480000   0.5000000  )
         3           O   tau(   3) = (   0.5000000   0.5000000   0.0000000  )
         4           O   tau(   4) = (   0.5000000   0.0000000   0.5000000  )
         5           O   tau(   5) = (   0.0000000   0.5000000   0.5000000  )

     number of k points=    75  Marzari-Vanderbilt smearing, width (Ry)=  0.0250
                       cart. coord. in units 2pi/alat
        k(    1) = (   0.0500000   0.0500000   0.0500000), wk =   0.0160000
        k(    2) = (   0.0500000   0.0500000   0.1500000), wk =   0.0320000
        k(    3) = (   0.0500000   0.0500000   0.2500000), wk =   0.0320000
        k(    4) = (   0.0500000   0.0500000   0.3500000), wk =   0.0320000
        k(    5) = (   0.0500000   0.0500000   0.4500000), wk =   0.0320000
        k(    6) = (   0.0500000   0.1500000   0.1500000), wk =   0.0320000
        k(    7) = (   0.0500000   0.1500000   0.2500000), wk =   0.0320000
        k(    8) = (   0.0500000   0.1500000   0.3500000), wk =   0.0320000
        k(    9) = (   0.0500000   0.1500000   0.4500000), wk =   0.0320000
        k(   10) = (   0.0500000   0.2500000   0.2500000), wk =   0.0320000
        k(   11) = (   0.0500000   0.2500000   0.3500000), wk =   0.0320000
        k(   12) = (   0.0500000   0.2500000   0.4500000), wk =   0.0320000
        k(   13) = (   0.0500000   0.3500000   0.3500000), wk =   0.0320000
        k(   14) = (   0.0500000   0.3500000   0.4500000), wk =   0.0320000
        k(   15) = (   0.0500000   0.4500000   0.4500000), wk =   0.0320000
        k(   16) = (   0.1500000   0.1500000   0.1500000), wk =   0.0160000
        k(   17) = (   0.1500000   0.1500000   0.2500000), wk =   0.0320000
        k(   18) = (   0.1500000   0.1500000   0.3500000), wk =   0.0320000
        k(   19) = (   0.1500000   0.1500000   0.4500000), wk =   0.0320000
        k(   20) = (   0.1500000   0.2500000   0.2500000), wk =   0.0320000
        k(   21) = (   0.1500000   0.2500000   0.3500000), wk =   0.0320000
        k(   22) = (   0.1500000   0.2500000   0.4500000), wk =   0.0320000
        k(   23) = (   0.1500000   0.3500000   0.3500000), wk =   0.0320000
        k(   24) = (   0.1500000   0.3500000   0.4500000), wk =   0.0320000
        k(   25) = (   0.1500000   0.4500000   0.4500000), wk =   0.0320000
        k(   26) = (   0.2500000   0.2500000   0.2500000), wk =   0.0160000
        k(   27) = (   0.2500000   0.2500000   0.3500000), wk =   0.0320000
        k(   28) = (   0.2500000   0.2500000   0.4500000), wk =   0.0320000
        k(   29) = (   0.2500000   0.3500000   0.3500000), wk =   0.0320000
        k(   30) = (   0.2500000   0.3500000   0.4500000), wk =   0.0320000
        k(   31) = (   0.2500000   0.4500000   0.4500000), wk =   0.0320000
        k(   32) = (   0.3500000   0.3500000   0.3500000), wk =   0.0160000
        k(   33) = (   0.3500000   0.3500000   0.4500000), wk =   0.0320000
        k(   34) = (   0.3500000   0.4500000   0.4500000), wk =   0.0320000
        k(   35) = (   0.4500000   0.4500000   0.4500000), wk =   0.0160000
        k(   36) = (  -0.0500000   0.1500000   0.0500000), wk =   0.0160000
        k(   37) = (  -0.0500000   0.2500000   0.0500000), wk =   0.0160000
        k(   38) = (  -0.0500000   0.3500000   0.0500000), wk =   0.0160000
        k(   39) = (  -0.0500000   0.4500000   0.0500000), wk =   0.0160000
        k(   40) = (   0.1500000   0.0500000   0.1500000), wk =   0.0160000
        k(   41) = (  -0.0500000   0.2500000   0.1500000), wk =   0.0320000
        k(   42) = (   0.2500000   0.0500000   0.1500000), wk =   0.0320000
        k(   43) = (  -0.0500000   0.3500000   0.1500000), wk =   0.0320000
        k(   44) = (   0.3500000   0.0500000   0.1500000), wk =   0.0320000
        k(   45) = (  -0.0500000   0.4500000   0.1500000), wk =   0.0320000
        k(   46) = (   0.4500000   0.0500000   0.1500000), wk =   0.0320000
        k(   47) = (   0.2500000   0.0500000   0.2500000), wk =   0.0160000
        k(   48) = (  -0.0500000   0.3500000   0.2500000), wk =   0.0320000
        k(   49) = (   0.3500000   0.0500000   0.2500000), wk =   0.0320000
        k(   50) = (  -0.0500000   0.4500000   0.2500000), wk =   0.0320000
        k(   51) = (   0.4500000   0.0500000   0.2500000), wk =   0.0320000
        k(   52) = (   0.3500000   0.0500000   0.3500000), wk =   0.0160000
        k(   53) = (  -0.0500000   0.4500000   0.3500000), wk =   0.0320000
        k(   54) = (   0.4500000   0.0500000   0.3500000), wk =   0.0320000
        k(   55) = (   0.4500000   0.0500000   0.4500000), wk =   0.0160000
        k(   56) = (  -0.1500000   0.2500000   0.1500000), wk =   0.0160000
        k(   57) = (  -0.1500000   0.3500000   0.1500000), wk =   0.0160000
        k(   58) = (  -0.1500000   0.4500000   0.1500000), wk =   0.0160000
        k(   59) = (   0.2500000   0.1500000   0.2500000), wk =   0.0160000
        k(   60) = (  -0.1500000   0.3500000   0.2500000), wk =   0.0320000
        k(   61) = (   0.3500000   0.1500000   0.2500000), wk =   0.0320000
        k(   62) = (  -0.1500000   0.4500000   0.2500000), wk =   0.0320000
        k(   63) = (   0.4500000   0.1500000   0.2500000), wk =   0.0320000
        k(   64) = (   0.3500000   0.1500000   0.3500000), wk =   0.0160000
        k(   65) = (  -0.1500000   0.4500000   0.3500000), wk =   0.0320000
        k(   66) = (   0.4500000   0.1500000   0.3500000), wk =   0.0320000
        k(   67) = (   0.4500000   0.1500000   0.4500000), wk =   0.0160000
        k(   68) = (  -0.2500000   0.3500000   0.2500000), wk =   0.0160000
        k(   69) = (  -0.2500000   0.4500000   0.2500000), wk =   0.0160000
        k(   70) = (   0.3500000   0.2500000   0.3500000), wk =   0.0160000
        k(   71) = (  -0.2500000   0.4500000   0.3500000), wk =   0.0320000
        k(   72) = (   0.4500000   0.2500000   0.3500000), wk =   0.0320000
        k(   73) = (   0.4500000   0.2500000   0.4500000), wk =   0.0160000
        k(   74) = (  -0.3500000   0.4500000   0.3500000), wk =   0.0160000
        k(   75) = (   0.4500000   0.3500000   0.4500000), wk =   0.0160000

     Dense  grid:   157923 G-vectors     FFT dimensions: (  72,  72,  72)

     Smooth grid:    39847 G-vectors     FFT dimensions: (  45,  45,  45)

     Estimated max dynamical RAM per process >     747.66 MB

     Check: negative core charge=   -0.000005

     Initial potential from superposition of free atoms

     starting charge   42.99760, renormalised to   44.00000
     Starting wfcs are   31 randomized atomic wfcs

     total cpu time spent up to now is       16.2 secs

     Self-consistent Calculation

     iteration #  1     ecut=    80.00 Ry     beta= 0.70
     Davidson diagonalization with overlap
     ethr =  1.00E-02,  avg # of iterations =  2.0

     total cpu time spent up to now is       46.5 secs

     total energy              =    -364.40664729 Ry
     Harris-Foulkes estimate   =    -365.28550343 Ry
     estimated scf accuracy    <       1.10416954 Ry

     iteration #  2     ecut=    80.00 Ry     beta= 0.70
     Davidson diagonalization with overlap
     ethr =  2.51E-03,  avg # of iterations =  4.1

     total cpu time spent up to now is       91.1 secs

     total energy              =    -363.50954513 Ry
     Harris-Foulkes estimate   =    -365.70111756 Ry
     estimated scf accuracy    <       7.64723141 Ry

     iteration #  3     ecut=    80.00 Ry     beta= 0.70
     Davidson diagonalization with overlap
     ethr =  2.51E-03,  avg # of iterations =  4.8

     total cpu time spent up to now is      136.1 secs

     total energy              =    -364.92763032 Ry
     Harris-Foulkes estimate   =    -365.08927604 Ry
     estimated scf accuracy    <       0.43813120 Ry

     iteration #  4     ecut=    80.00 Ry     beta= 0.70
     Davidson diagonalization with overlap
     ethr =  9.96E-04,  avg # of iterations =  3.4

     total cpu time spent up to now is      166.4 secs

     total energy              =    -364.91708745 Ry
     Harris-Foulkes estimate   =    -364.96067716 Ry
     estimated scf accuracy    <       0.14303204 Ry

     iteration #  5     ecut=    80.00 Ry     beta= 0.70
     Davidson diagonalization with overlap
     ethr =  3.25E-04,  avg # of iterations =  4.3

     total cpu time spent up to now is      205.1 secs

     total energy              =    -364.95206731 Ry
     Harris-Foulkes estimate   =    -364.95250983 Ry
     estimated scf accuracy    <       0.00211229 Ry

     iteration #  6     ecut=    80.00 Ry     beta= 0.70
     Davidson diagonalization with overlap
     ethr =  4.80E-06,  avg # of iterations =  4.1

     total cpu time spent up to now is      248.2 secs

     total energy              =    -364.95242381 Ry
     Harris-Foulkes estimate   =    -364.95299941 Ry
     estimated scf accuracy    <       0.00273583 Ry

     iteration #  7     ecut=    80.00 Ry     beta= 0.70
     Davidson diagonalization with overlap
     ethr =  4.80E-06,  avg # of iterations =  2.3

     total cpu time spent up to now is      277.3 secs

     total energy              =    -364.95234079 Ry
     Harris-Foulkes estimate   =    -364.95263738 Ry
     estimated scf accuracy    <       0.00072363 Ry

     iteration #  8     ecut=    80.00 Ry     beta= 0.70
     Davidson diagonalization with overlap
     ethr =  1.64E-06,  avg # of iterations =  3.8

     total cpu time spent up to now is      309.8 secs

     total energy              =    -364.95251826 Ry
     Harris-Foulkes estimate   =    -364.95252808 Ry
     estimated scf accuracy    <       0.00005808 Ry

     iteration #  9     ecut=    80.00 Ry     beta= 0.70
     Davidson diagonalization with overlap
     ethr =  1.32E-07,  avg # of iterations =  2.0

     total cpu time spent up to now is      341.0 secs

     total energy              =    -364.95251615 Ry
     Harris-Foulkes estimate   =    -364.95252522 Ry
     estimated scf accuracy    <       0.00002781 Ry

     iteration # 10     ecut=    80.00 Ry     beta= 0.70
     Davidson diagonalization with overlap
     ethr =  6.32E-08,  avg # of iterations =  2.8

     total cpu time spent up to now is      371.0 secs

     total energy              =    -364.95251959 Ry
     Harris-Foulkes estimate   =    -364.95252000 Ry
     estimated scf accuracy    <       0.00000076 Ry

     iteration # 11     ecut=    80.00 Ry     beta= 0.70
     Davidson diagonalization with overlap
     ethr =  1.74E-09,  avg # of iterations =  3.5

     total cpu time spent up to now is      416.1 secs

     total energy              =    -364.95252000 Ry
     Harris-Foulkes estimate   =    -364.95252005 Ry
     estimated scf accuracy    <       0.00000009 Ry

     iteration # 12     ecut=    80.00 Ry     beta= 0.70
     Davidson diagonalization with overlap
     ethr =  2.07E-10,  avg # of iterations =  3.0

     total cpu time spent up to now is      449.4 secs

     End of self-consistent calculation

          k = 0.0500 0.0500 0.0500 (  4990 PWs)   bands (ev):

   -45.7469 -22.1138 -22.0004 -22.0004  -7.0544  -6.0403  -5.9212  -4.7865
    -4.7676  -4.7673  -4.6302  -4.6153   4.7349   7.0111   7.0611   7.2151
     8.9547   8.9802   9.3801   9.4937   9.7581   9.7734  12.8015  13.2966
    13.3057  15.0844

          k = 0.0500 0.0500 0.1500 (  4997 PWs)   bands (ev):

   -45.7467 -22.1134 -22.0119 -22.0000  -6.9708  -6.0047  -5.8898  -4.7947
    -4.7760  -4.7669  -4.6616  -4.6135   4.4186   7.0684   7.1463   7.4047
     8.7502   8.9252   9.3314   9.3951   9.6163   9.7532  13.1265  13.3060
    13.3915  15.2913

          k = 0.0500 0.0500 0.2500 (  5005 PWs)   bands (ev):

   -45.7463 -22.1127 -22.0305 -21.9993  -6.8317  -5.9420  -5.8396  -4.8085
    -4.7899  -4.7660  -4.7195  -4.6075   4.0314   7.0927   7.2507   7.4146
     8.6438   8.7320   9.2453   9.3175   9.5387   9.8240  13.3064  13.6000
    13.7181  15.2911

          k = 0.0500 0.0500 0.3500 (  5011 PWs)   bands (ev):

   -45.7459 -22.1120 -22.0490 -21.9986  -6.6870  -5.8690  -5.7931  -4.8286
    -4.8061  -4.7746  -4.7651  -4.6034   3.7311   6.7437   7.4289   7.5694
     8.3811   8.4994   9.1698   9.2437   9.6364  10.2192  13.3068  14.0287
    14.1244  14.5765

          k = 0.0500 0.0500 0.4500 (  5005 PWs)   bands (ev):

   -45.7457 -22.1115 -22.0604 -21.9982  -6.5942  -5.8117  -5.7723  -4.8570
    -4.8177  -4.7949  -4.7645  -4.6021   3.5760   6.4581   7.6097   7.8175
     8.1025   8.2143   9.1390   9.2322   9.6885  10.6793  13.2902  13.8495
    14.2825  14.4051

          k = 0.0500 0.1500 0.1500 (  4997 PWs)   bands (ev):

   -45.7464 -22.1252 -22.0115 -21.9995  -6.8740  -5.9815  -5.8614  -4.7949
    -4.7877  -4.7744  -4.6526  -4.6343   4.1833   7.0241   7.1258   7.5863
     8.5276   8.7526   9.1750   9.4442   9.5765   9.8465  13.1266  13.5590
    13.6248  15.3978

          k = 0.0500 0.1500 0.2500 (  5011 PWs)   bands (ev):

   -45.7460 -22.1245 -22.0300 -21.9988  -6.7393  -5.9272  -5.8179  -4.8126
    -4.7981  -4.7738  -4.6842  -4.6242   3.8743   6.9865   7.2466   7.5104
     8.3889   8.5935   9.0492   9.3202   9.4917  10.0135  13.5386  13.6180
    13.8936  15.4283

          k = 0.0500 0.1500 0.3500 (  5008 PWs)   bands (ev):

   -45.7457 -22.1237 -22.0485 -21.9981  -6.6015  -5.8720  -5.7697  -4.8329
    -4.8083  -4.7733  -4.7117  -4.6196   3.6170   6.7238   7.3580   7.5456
     8.1506   8.4374   9.0025   9.2972   9.4725  10.2753  13.5514  14.0221
    14.2457  14.7458

          k = 0.0500 0.1500 0.4500 (  4997 PWs)   bands (ev):

   -45.7454 -22.1232 -22.0598 -21.9977  -6.5148  -5.8375  -5.7364  -4.8486
    -4.8174  -4.7730  -4.7207  -4.6213   3.4790   6.4612   7.4625   7.7142
     7.9807   8.1809   9.0302   9.3608   9.4428  10.4869  13.5305  14.2402
    14.2802  14.4966

          k = 0.0500 0.2500 0.2500 (  4997 PWs)   bands (ev):

   -45.7457 -22.1434 -22.0292 -21.9981  -6.5885  -5.9060  -5.7732  -4.8174
    -4.8025  -4.7824  -4.6579  -4.6381   3.6368   6.8445   7.2645   7.4065
     8.1743   8.3184   8.8090   9.3076   9.6730  10.1724  13.5796  13.9573
    14.1732  15.3533

          k = 0.0500 0.2500 0.3500 (  5000 PWs)   bands (ev):

   -45.7453 -22.1426 -22.0476 -21.9974  -6.4721  -5.8709  -5.7145  -4.8277
    -4.8073  -4.7837  -4.6681  -4.6156   3.4367   6.6772   7.1573   7.4583
     7.9484   8.2992   8.7153   9.1196   9.7862  10.1883  13.9190  14.0242
    14.4344  15.0496

          k = 0.0500 0.2500 0.4500 (  5006 PWs)   bands (ev):

   -45.7450 -22.1420 -22.0589 -21.9970  -6.4051  -5.8479  -5.6692  -4.8343
    -4.8158  -4.7848  -4.6605  -4.6117   3.3237   6.4568   7.1771   7.4561
     7.8507   8.2959   8.6687   9.1009   9.8135  10.1562  13.9275  14.2484
    14.6340  14.8559

          k = 0.0500 0.3500 0.3500 (  5000 PWs)   bands (ev):

   -45.7449 -22.1613 -22.0467 -21.9967  -6.3672  -5.8336  -5.6527  -4.8264
    -4.8100  -4.7873  -4.6902  -4.5554   3.2631   6.4850   6.8976   7.4419
     7.8580   8.1606   8.5940   9.0710   9.8082  10.1943  13.9756  14.3322
    14.6284  15.3762

          k = 0.0500 0.3500 0.4500 (  4997 PWs)   bands (ev):

   -45.7447 -22.1607 -22.0579 -21.9962  -6.3362  -5.7994  -5.5949  -4.8276
    -4.8144  -4.7903  -4.6982  -4.5196   3.1714   6.3796   6.7456   7.5146
     7.6690   8.3371   8.5025   8.9471   9.6323  10.2521  14.2165  14.3271
    14.7962  15.4287

          k = 0.0500 0.4500 0.4500 (  4995 PWs)   bands (ev):

   -45.7444 -22.1722 -22.0573 -21.9958  -6.3178  -5.7363  -5.5446  -4.8302
    -4.8138  -4.7913  -4.7220  -4.4662   3.0791   6.1849   6.6308   7.4882
     7.6520   8.2637   8.5598   8.8843   9.3198  10.4315  14.1979  14.5690
    14.9073  15.8107

          k = 0.1500 0.1500 0.1500 (  4998 PWs)   bands (ev):

   -45.7462 -22.1248 -22.0112 -22.0109  -6.7957  -5.9553  -5.8366  -4.8039
    -4.7934  -4.7744  -4.6486  -4.6354   4.0278   6.9863   7.0478   7.6993
     8.3808   8.5386   9.1330   9.5104   9.6697   9.7284  13.3568  13.6042
    13.6412  15.8904

          k = 0.1500 0.1500 0.2500 (  5000 PWs)   bands (ev):

   -45.7458 -22.1240 -22.0295 -22.0103  -6.6693  -5.9109  -5.7942  -4.8191
    -4.7950  -4.7710  -4.6658  -4.6242   3.7920   6.9358   7.0325   7.5354
     8.1686   8.3605   9.1710   9.4417   9.6037   9.9217  13.5650  13.7428
    13.8882  15.4716

          k = 0.1500 0.1500 0.3500 (  5003 PWs)   bands (ev):

   -45.7454 -22.1232 -22.0479 -22.0096  -6.5445  -5.8640  -5.7467  -4.8324
    -4.7874  -4.7654  -4.6901  -4.6195   3.5783   6.7206   7.0293   7.3945
     7.9796   8.4088   8.9379   9.4779   9.6141  10.1462  13.5072  14.0725
    14.2354  14.9561

          k = 0.1500 0.1500 0.4500 (  4986 PWs)   bands (ev):

   -45.7452 -22.1228 -22.0593 -22.0091  -6.4692  -5.8339  -5.7133  -4.8376
    -4.7812  -4.7591  -4.7070  -4.6226   3.4582   6.4675   7.0203   7.4343
     7.8956   8.5208   8.6861   9.5509   9.5986  10.2626  13.4389  14.2932
    14.4790  14.7089

          k = 0.1500 0.2500 0.2500 (  4990 PWs)   bands (ev):

   -45.7454 -22.1429 -22.0287 -22.0095  -6.5157  -5.8954  -5.7749  -4.8214
    -4.8049  -4.7576  -4.6388  -4.6198   3.6295   6.7750   6.8941   7.3598
     7.8843   8.1917   9.0867   9.4977   9.7195  10.0182  13.6148  13.9421
    14.1246  15.2758

          k = 0.1500 0.2500 0.3500 (  5000 PWs)   bands (ev):

   -45.7450 -22.1421 -22.0471 -22.0088  -6.4046  -5.8775  -5.7227  -4.8244
    -4.7936  -4.7480  -4.6415  -4.5996   3.4815   6.6434   6.8483   7.1075
     7.5854   8.2435   9.1451   9.3039   9.7961  10.0139  13.7503  14.0534
    14.3727  15.2341

          k = 0.1500 0.2500 0.4500 (  5002 PWs)   bands (ev):

   -45.7448 -22.1416 -22.0584 -22.0084  -6.3419  -5.8697  -5.6782  -4.8230
    -4.7832  -4.7461  -4.6342  -4.5981   3.3918   6.4550   6.8111   7.0202
     7.5005   8.3423   8.9608   9.3880   9.7511   9.9781  13.7642  14.2335
    14.5765  15.2626

          k = 0.1500 0.3500 0.3500 (  5004 PWs)   bands (ev):

   -45.7447 -22.1608 -22.0462 -22.0080  -6.2865  -5.8600  -5.6966  -4.8209
    -4.7867  -4.7265  -4.6486  -4.5397   3.3695   6.4396   6.7616   6.8688
     7.2851   8.2160   9.0011   9.3439   9.6496  10.1349  13.8830  14.2383
    14.5421  15.5465

          k = 0.1500 0.3500 0.4500 (  4997 PWs)   bands (ev):

   -45.7444 -22.1603 -22.0574 -22.0076  -6.2546  -5.8491  -5.6432  -4.8163
    -4.7665  -4.7316  -4.6510  -4.5040   3.3080   6.3599   6.6614   6.8136
     7.0816   8.2889   8.9762   9.2342   9.4275  10.2381  14.1269  14.2333
    14.6969  15.7686

          k = 0.1500 0.4500 0.4500 (  5002 PWs)   bands (ev):

   -45.7442 -22.1718 -22.0569 -22.0071  -6.2314  -5.7981  -5.6224  -4.8135
    -4.7468  -4.7134  -4.6771  -4.4492   3.2487   6.1604   6.5836   6.8058
     6.9369   8.2917   8.7324   9.1395   9.3609  10.4102  14.1843  14.4406
    14.7972  16.1092

          k = 0.2500 0.2500 0.2500 (  4977 PWs)   bands (ev):

   -45.7450 -22.1421 -22.0281 -22.0278  -6.4070  -5.8762  -5.7681  -4.8098
    -4.8054  -4.7263  -4.6156  -4.5926   3.5972   6.5758   6.6701   7.2035
     7.6676   7.7619   9.2838   9.7434   9.7561   9.8806  13.6126  14.0919
    14.0997  15.3077

          k = 0.2500 0.2500 0.3500 (  4998 PWs)   bands (ev):

   -45.7447 -22.1413 -22.0463 -22.0272  -6.3159  -5.8630  -5.7342  -4.8038
    -4.7880  -4.6894  -4.5983  -4.5738   3.5411   6.4398   6.5212   6.8696
     7.3949   7.7282   9.1730   9.6662   9.7791  10.0287  13.6897  14.1450
    14.3583  15.5135

          k = 0.2500 0.2500 0.4500 (  5001 PWs)   bands (ev):

   -45.7444 -22.1408 -22.0575 -22.0267  -6.2712  -5.8612  -5.6932  -4.7991
    -4.7753  -4.6539  -4.5931  -4.5705   3.4968   6.3428   6.4488   6.6255
     7.3309   7.7699   8.9510   9.6902   9.7331  10.0877  13.8085  14.2263
    14.5595  15.7595

          k = 0.2500 0.3500 0.3500 (  4990 PWs)   bands (ev):

   -45.7443 -22.1600 -22.0454 -22.0264  -6.1695  -5.8840  -5.7564  -4.7959
    -4.7681  -4.6480  -4.5722  -4.5097   3.5535   6.1868   6.3507   6.6492
     7.0725   7.6094   8.7138   9.7426   9.9449  10.1245  13.8468  14.2888
    14.4922  15.8537

          k = 0.2500 0.3500 0.4500 (  4985 PWs)   bands (ev):

   -45.7441 -22.1595 -22.0566 -22.0259  -6.1379  -5.8995  -5.7103  -4.7886
    -4.7503  -4.6218  -4.5609  -4.4744   3.5613   6.1805   6.2218   6.4482
     6.8820   7.6370   8.3562   9.7588   9.9336  10.2401  14.1013  14.2721
    14.6409  16.1950

          k = 0.2500 0.4500 0.4500 (  4988 PWs)   bands (ev):

   -45.7438 -22.1710 -22.0561 -22.0254  -6.0916  -5.8805  -5.7214  -4.7840
    -4.7308  -4.6004  -4.5434  -4.4171   3.5838   5.9936   6.2493   6.3066
     6.6876   7.6114   7.8890   9.7541   9.9794  10.3908  14.2467  14.4141
    14.7322  16.5342

          k = 0.3500 0.3500 0.3500 (  4977 PWs)   bands (ev):

   -45.7439 -22.1592 -22.0447 -22.0445  -6.0989  -5.8702  -5.7930  -4.7697
    -4.7555  -4.5729  -4.5013  -4.4721   3.7495   5.9186   6.0279   6.5124
     7.0279   7.0842   8.0687  10.0204  10.1190  10.2671  14.0187  14.4661
    14.4687  16.2288

          k = 0.3500 0.3500 0.4500 (  4971 PWs)   bands (ev):

   -45.7437 -22.1587 -22.0559 -22.0441  -6.0885  -5.8704  -5.7682  -4.7588
    -4.7435  -4.5201  -4.4728  -4.4393   3.8710   5.8180   5.8767   6.3437
     6.8477   7.0699   7.5752  10.0759  10.1949  10.3854  14.2595  14.4192
    14.6323  16.6106

          k = 0.3500 0.4500 0.4500 (  4966 PWs)   bands (ev):

   -45.7434 -22.1702 -22.0553 -22.0437  -5.9786  -5.9227  -5.8017  -4.7549
    -4.7264  -4.4913  -4.4231  -4.3780   4.0638   5.6499   5.8116   6.1834
     6.6575   6.9314   7.0429  10.1725  10.3638  10.3887  14.4257  14.5379
    14.7035  16.9773

          k = 0.4500 0.4500 0.4500 (  4953 PWs)   bands (ev):

   -45.7432 -22.1697 -22.0549 -22.0549  -6.0003  -5.8567  -5.8417  -4.7386
    -4.7225  -4.4263  -4.3552  -4.3491   4.5761   5.4672   5.5544   6.0958
     6.1558   6.6387   6.7619  10.3594  10.3725  10.5508  14.6058  14.6800
    14.6826  17.3368

          k =-0.0500 0.1500 0.0500 (  4997 PWs)   bands (ev):

   -45.7467 -22.1257 -22.0000 -21.9999  -6.9556  -6.0145  -5.8866  -4.7859
    -4.7774  -4.7746  -4.6520  -4.6252   4.4102   7.0576   7.0596   7.4198
     8.7725   8.7955   9.3431   9.3671   9.7842   9.8022  12.8031  13.5484
    13.5664  15.0867

          k =-0.0500 0.2500 0.0500 (  5005 PWs)   bands (ev):

   -45.7463 -22.1448 -21.9992 -21.9992  -6.7871  -5.9765  -5.8253  -4.7957
    -4.7857  -4.7844  -4.7137  -4.6188   4.0065   7.0379   7.1349   7.3327
     8.5300   8.5466   9.3169   9.4654   9.8525   9.9258  12.8057  13.9393
    13.9655  15.0909

          k =-0.0500 0.3500 0.0500 (  5011 PWs)   bands (ev):

   -45.7459 -22.1637 -21.9985 -21.9985  -6.6035  -5.9471  -5.7555  -4.8281
    -4.7946  -4.7838  -4.7699  -4.6148   3.6884   6.6628   7.2157   7.3592
     8.3153   8.3201   9.2555   9.7002   9.9068  10.3285  12.8071  14.3169
    14.3481  14.6690

          k =-0.0500 0.4500 0.0500 (  5005 PWs)   bands (ev):

   -45.7457 -22.1754 -21.9981 -21.9981  -6.4780  -5.9372  -5.7062  -4.8674
    -4.7997  -4.7916  -4.7832  -4.6136   3.5215   6.3481   7.2685   7.4419
     8.1623   8.1995   9.2156   9.7895   9.9426  10.8051  12.8051  13.9119
    14.5449  14.5839

          k = 0.1500 0.0500 0.1500 (  4997 PWs)   bands (ev):

   -45.7464 -22.1130 -22.0117 -22.0113  -6.8918  -5.9752  -5.8568  -4.8031
    -4.7764  -4.7738  -4.6617  -4.6277   4.1944   7.0174   7.2128   7.5620
     8.5612   8.7066   9.2150   9.4248   9.6315   9.7739  13.3319  13.4029
    13.4268  15.6415

          k =-0.0500 0.2500 0.1500 (  5011 PWs)   bands (ev):

   -45.7460 -22.1443 -22.0107 -21.9988  -6.7104  -5.9471  -5.8112  -4.8091
    -4.7933  -4.7830  -4.6780  -4.6341   3.8585   6.9242   7.1731   7.4961
     8.2738   8.5288   9.0811   9.4788   9.6350  10.0642  13.1246  13.9439
    13.9934  15.4173

          k = 0.2500 0.0500 0.1500 (  5011 PWs)   bands (ev):

   -45.7460 -22.1123 -22.0300 -22.0108  -6.7631  -5.9210  -5.8038  -4.8149
    -4.7864  -4.7739  -4.6930  -4.6263   3.8864   7.0077   7.2647   7.5067
     8.3606   8.4642   9.1397   9.4218   9.6281   9.8982  13.3768  13.6970
    13.7900  15.6399

          k =-0.0500 0.3500 0.1500 (  5008 PWs)   bands (ev):

   -45.7457 -22.1632 -22.0099 -21.9981  -6.5363  -5.9172  -5.7555  -4.8357
    -4.7933  -4.7893  -4.7086  -4.6299   3.5836   6.6113   7.1699   7.4711
     8.0771   8.3351   9.1713   9.4688   9.6983  10.3841  13.1163  14.3087
    14.3536  14.8532

          k = 0.3500 0.0500 0.1500 (  5008 PWs)   bands (ev):

   -45.7457 -22.1115 -22.0485 -22.0100  -6.6345  -5.8530  -5.7545  -4.8312
    -4.7927  -4.7733  -4.7322  -4.6220   3.6285   6.7443   7.2829   7.5960
     8.1094   8.4528   8.8471   9.4671   9.6616  10.2259  13.3555  14.0871
    14.1730  14.7972

          k =-0.0500 0.4500 0.1500 (  4997 PWs)   bands (ev):

   -45.7454 -22.1748 -22.0095 -21.9976  -6.4213  -5.9019  -5.7180  -4.8587
    -4.7966  -4.7914  -4.7189  -4.6317   3.4339   6.3203   7.1648   7.5573
     7.9528   8.2083   9.2702   9.4467   9.7383  10.6328  13.1018  14.3060
    14.5532  14.6041

          k = 0.4500 0.0500 0.1500 (  4997 PWs)   bands (ev):

   -45.7454 -22.1111 -22.0599 -22.0096  -6.5560  -5.7954  -5.7326  -4.8472
    -4.7968  -4.7730  -4.7507  -4.6223   3.4897   6.4670   7.3770   7.6890
     8.0536   8.2689   8.7511   9.4530   9.6999  10.5127  13.3092  14.2877
    14.3422  14.4305

          k = 0.2500 0.0500 0.2500 (  4997 PWs)   bands (ev):

   -45.7457 -22.1115 -22.0295 -22.0290  -6.6587  -5.8739  -5.7453  -4.8147
    -4.7888  -4.7804  -4.6648  -4.6541   3.6661   6.9571   7.2204   7.4849
     8.0352   8.1744   9.1643   9.2821   9.8302   9.9644  13.6174  13.7557
    14.0584  15.4409

          k =-0.0500 0.3500 0.2500 (  5000 PWs)   bands (ev):

   -45.7453 -22.1622 -22.0283 -21.9974  -6.4402  -5.8760  -5.7229  -4.8293
    -4.8043  -4.7877  -4.6698  -4.6176   3.4193   6.5490   7.1738   7.3687
     7.9881   8.2395   8.7051   9.3519   9.7417  10.2905  13.5655  14.3340
    14.4411  15.1431

          k = 0.3500 0.0500 0.2500 (  5000 PWs)   bands (ev):

   -45.7453 -22.1108 -22.0476 -22.0284  -6.5661  -5.8018  -5.6891  -4.8201
    -4.7914  -4.7821  -4.6770  -4.6451   3.4642   6.7487   7.1025   7.4621
     7.8734   8.1662   8.8433   9.3588   9.8639  10.1503  13.6414  14.0932
    14.3414  15.1042

          k =-0.0500 0.4500 0.2500 (  5006 PWs)   bands (ev):

   -45.7450 -22.1738 -22.0278 -21.9969  -6.3542  -5.8439  -5.6925  -4.8427
    -4.8036  -4.7945  -4.6673  -4.6103   3.2946   6.2758   7.1415   7.3582
     7.9290   8.1841   8.7243   9.3938   9.7207  10.3438  13.5533  14.5638
    14.5954  15.0276

          k = 0.4500 0.0500 0.2500 (  5006 PWs)   bands (ev):

   -45.7450 -22.1104 -22.0589 -22.0280  -6.5166  -5.7340  -5.6633  -4.8293
    -4.7945  -4.7851  -4.6684  -4.6496   3.3491   6.4757   7.1839   7.3261
     7.9189   8.2831   8.5306   9.4397   9.8021  10.2838  13.6180  14.3538
    14.5350  14.8924

          k = 0.3500 0.0500 0.3500 (  5000 PWs)   bands (ev):

   -45.7449 -22.1101 -22.0469 -22.0466  -6.5201  -5.7136  -5.6219  -4.8140
    -4.7965  -4.7812  -4.6935  -4.6038   3.3043   6.6899   6.8261   7.4084
     7.5828   8.2049   8.8484   9.1087   9.8567  10.2532  13.9830  14.1345
    14.5324  15.3642

          k =-0.0500 0.4500 0.3500 (  4997 PWs)   bands (ev):

   -45.7447 -22.1729 -22.0461 -21.9962  -6.3222  -5.7805  -5.6144  -4.8322
    -4.8109  -4.7923  -4.7014  -4.5185   3.1597   6.2302   6.8575   7.3698
     7.8708   8.1329   8.5457   9.0852   9.6097  10.3121  13.9655  14.5703
    14.7671  15.5848

          k = 0.4500 0.0500 0.3500 (  4997 PWs)   bands (ev):

   -45.7447 -22.1096 -22.0580 -22.0462  -6.5024  -5.6327  -5.5870  -4.8168
    -4.7951  -4.7886  -4.7044  -4.5732   3.2087   6.4422   6.8424   7.2773
     7.5519   8.3764   8.6188   9.1095   9.6797  10.4063  14.0392  14.3498
    14.6702  15.4516

          k = 0.4500 0.0500 0.4500 (  4995 PWs)   bands (ev):

   -45.7444 -22.1091 -22.0575 -22.0574  -6.5032  -5.5512  -5.5373  -4.8156
    -4.7933  -4.7889  -4.7324  -4.5253   3.1226   6.3226   6.7181   7.3076
     7.3269   8.5259   8.6747   8.8621   9.4445  10.5813  14.3279  14.3567
    14.7555  15.7597

          k =-0.1500 0.2500 0.1500 (  5000 PWs)   bands (ev):

   -45.7458 -22.1438 -22.0104 -22.0101  -6.6347  -5.9245  -5.8029  -4.8176
    -4.8025  -4.7696  -4.6525  -4.6348   3.7743   6.9196   6.9212   7.5482
     8.1940   8.3574   8.9767   9.5666   9.7266   9.9568  13.3266  13.9417
    13.9973  15.4978

          k =-0.1500 0.3500 0.1500 (  5003 PWs)   bands (ev):

   -45.7454 -22.1626 -22.0096 -22.0094  -6.4656  -5.8962  -5.7676  -4.8380
    -4.7989  -4.7564  -4.6749  -4.6306   3.5426   6.6141   6.8395   7.4349
     8.0789   8.3278   8.8394   9.5814   9.7765  10.2393  13.2624  14.2934
    14.3204  15.0111

          k =-0.1500 0.4500 0.1500 (  4986 PWs)   bands (ev):

   -45.7452 -22.1742 -22.0091 -22.0089  -6.3560  -5.8804  -5.7449  -4.8486
    -4.7965  -4.7410  -4.6918  -4.6351   3.4108   6.3241   6.7825   7.4801
     8.0314   8.2858   8.8102   9.5781   9.8069  10.3798  13.2045  14.5185
    14.5191  14.7977

          k = 0.2500 0.1500 0.2500 (  4990 PWs)   bands (ev):

   -45.7454 -22.1233 -22.0290 -22.0285  -6.5633  -5.8755  -5.7539  -4.8168
    -4.8010  -4.7566  -4.6444  -4.6265   3.6486   6.8206   6.9369   7.3497
     7.8162   8.1649   9.2778   9.4662   9.8134   9.8474  13.6712  13.8652
    14.0305  15.2835

          k =-0.1500 0.3500 0.2500 (  5000 PWs)   bands (ev):

   -45.7450 -22.1617 -22.0279 -22.0088  -6.3637  -5.8734  -5.7542  -4.8284
    -4.8007  -4.7362  -4.6414  -4.6024   3.4625   6.5296   6.7499   7.1376
     7.7648   8.2007   8.8670   9.5948   9.7896  10.0734  13.5474  14.2578
    14.3802  15.2691

          k = 0.3500 0.1500 0.2500 (  5000 PWs)   bands (ev):

   -45.7450 -22.1225 -22.0471 -22.0280  -6.4707  -5.8261  -5.7090  -4.8184
    -4.7929  -4.7362  -4.6442  -4.6226   3.5002   6.6856   6.8339   7.0651
     7.6367   8.1637   9.1350   9.4770   9.7655  10.0411  13.6454  14.0911
    14.3079  15.2402

          k =-0.1500 0.4500 0.2500 (  5002 PWs)   bands (ev):

   -45.7448 -22.1733 -22.0274 -22.0083  -6.2750  -5.8486  -5.7438  -4.8313
    -4.7960  -4.7170  -4.6483  -4.5953   3.3602   6.2820   6.6247   7.1254
     7.7545   8.2732   8.6961   9.6470   9.7630  10.0768  13.5257  14.4826
    14.5714  15.3515

          k = 0.4500 0.1500 0.2500 (  5002 PWs)   bands (ev):

   -45.7448 -22.1220 -22.0584 -22.0275  -6.4223  -5.7890  -5.6760  -4.8180
    -4.7855  -4.7184  -4.6443  -4.6282   3.4094   6.4706   6.7477   7.0178
     7.6062   8.2232   8.9550   9.5362   9.6752  10.1200  13.6281  14.2889
    14.5214  15.2704

          k = 0.3500 0.1500 0.3500 (  5004 PWs)   bands (ev):

   -45.7447 -22.1218 -22.0464 -22.0461  -6.4236  -5.7552  -5.6691  -4.8084
    -4.7852  -4.7135  -4.6398  -4.5877   3.4063   6.6490   6.6558   6.8283
     7.2459   8.1480   9.1840   9.3505   9.5659  10.2559  13.8762  14.1474
    14.4693  15.5290

          k =-0.1500 0.4500 0.3500 (  4997 PWs)   bands (ev):

   -45.7444 -22.1724 -22.0456 -22.0076  -6.2358  -5.8183  -5.6838  -4.8195
    -4.7776  -4.7034  -4.6679  -4.5024   3.2949   6.2074   6.6853   6.7811
     7.2596   8.2425   8.8143   9.3471   9.5035  10.2545  13.9191  14.4542
    14.6840  15.8415

          k = 0.4500 0.1500 0.3500 (  4997 PWs)   bands (ev):

   -45.7444 -22.1213 -22.0575 -22.0457  -6.4073  -5.7000  -5.6392  -4.8044
    -4.7723  -4.6995  -4.6507  -4.5585   3.3424   6.4322   6.6565   6.7182
     7.1316   8.1865   9.0357   9.3339   9.4164  10.3943  13.9885  14.2825
    14.6194  15.7716

          k = 0.4500 0.1500 0.4500 (  5002 PWs)   bands (ev):

   -45.7442 -22.1208 -22.0570 -22.0570  -6.4098  -5.6288  -5.6161  -4.7990
    -4.7494  -4.6864  -4.6728  -4.5105   3.2928   6.3118   6.6302   6.7005
     6.8256   8.2110   8.8522   9.2797   9.2906  10.5753  14.2562  14.3044
    14.7106  16.0827

          k =-0.2500 0.3500 0.2500 (  4998 PWs)   bands (ev):

   -45.7447 -22.1609 -22.0273 -22.0270  -6.2523  -5.8701  -5.7826  -4.8111
    -4.7897  -4.6865  -4.5978  -4.5659   3.5192   6.3349   6.5228   6.8455
     7.6078   7.6388   9.0306   9.7689   9.8696   9.9475  13.6174  14.2493
    14.3759  15.5253

          k =-0.2500 0.4500 0.2500 (  5001 PWs)   bands (ev):

   -45.7444 -22.1724 -22.0267 -22.0265  -6.1630  -5.8571  -5.7918  -4.8093
    -4.7799  -4.6426  -4.6048  -4.5517   3.4602   6.1942   6.3103   6.7599
     7.5890   7.6595   8.8031   9.7158   9.8984  10.0022  13.6799  14.4053
    14.5786  15.8098

          k = 0.3500 0.2500 0.3500 (  4990 PWs)   bands (ev):

   -45.7443 -22.1405 -22.0456 -22.0453  -6.2639  -5.8152  -5.7353  -4.7833
    -4.7759  -4.6337  -4.5535  -4.5521   3.5780   6.2717   6.2728   6.6736
     7.1135   7.5203   8.7543   9.7800   9.8229  10.2609  13.8462  14.2569
    14.4562  15.8458

          k =-0.2500 0.4500 0.3500 (  4985 PWs)   bands (ev):

   -45.7441 -22.1715 -22.0449 -22.0259  -6.0988  -5.8712  -5.7718  -4.7920
    -4.7531  -4.6137  -4.5656  -4.4705   3.5445   6.0126   6.3106   6.4334
     7.0120   7.5934   8.3398   9.7340   9.9830  10.2262  13.9866  14.4101
    14.6417  16.2132

          k = 0.4500 0.2500 0.3500 (  4985 PWs)   bands (ev):

   -45.7441 -22.1401 -22.0567 -22.0449  -6.2502  -5.7917  -5.7088  -4.7774
    -4.7600  -4.5866  -4.5538  -4.5234   3.5864   6.1302   6.2596   6.4278
     6.9965   7.5168   8.3951   9.8087   9.8285  10.3874  14.0538  14.2877
    14.6067  16.1893

          k = 0.4500 0.2500 0.4500 (  4988 PWs)   bands (ev):

   -45.7438 -22.1396 -22.0562 -22.0562  -6.2562  -5.7282  -5.7162  -4.7699
    -4.7427  -4.5498  -4.5386  -4.4814   3.6277   6.0996   6.1189   6.3021
     6.7600   7.4892   7.9671   9.8418   9.8461  10.5658  14.2830  14.3477
    14.6825  16.5160

          k =-0.3500 0.4500 0.3500 (  4971 PWs)   bands (ev):

   -45.7437 -22.1707 -22.0442 -22.0441  -5.9893  -5.9077  -5.8255  -4.7664
    -4.7380  -4.5385  -4.4658  -4.4242   3.8454   5.7228   6.0248   6.2600
     6.8840   7.0779   7.5665  10.1069  10.2452  10.2722  14.2049  14.4948
    14.6423  16.6123

          k = 0.4500 0.3500 0.4500 (  4966 PWs)   bands (ev):

   -45.7434 -22.1582 -22.0554 -22.0554  -6.0997  -5.8100  -5.7975  -4.7406
    -4.7399  -4.4553  -4.4209  -4.4183   4.1012   5.6903   5.6934   6.2244
     6.7598   6.8875   7.0003  10.2023  10.2113  10.5565  14.4511  14.5188
    14.6710  16.9727

     the Fermi energy is    10.6711 ev

!    total energy              =    -364.95252001 Ry
     Harris-Foulkes estimate   =    -364.95252002 Ry
     estimated scf accuracy    <          6.9E-09 Ry

     The total energy is the sum of the following terms:

     one-electron contribution =     -81.54702972 Ry
     hartree contribution      =      70.61595420 Ry
     xc contribution           =     -85.88828404 Ry
     ewald contribution        =    -268.13911384 Ry
     smearing contrib. (-TS)   =       0.00595338 Ry

     convergence has been achieved in  12 iterations

     Forces acting on atoms (cartesian axes, Ry/au):

     atom    1 type  1   force =     0.00000000    0.01929110    0.00000000
     atom    2 type  2   force =     0.00000000   -0.04550572    0.00000000
     atom    3 type  3   force =     0.00000000    0.00246744    0.00000000
     atom    4 type  3   force =     0.00000000    0.02127973    0.00000000
     atom    5 type  3   force =     0.00000000    0.00246744    0.00000000

     Total force =     0.050356     Total SCF correction =     0.000113


     Computing stress (Cartesian axis) and pressure

          total   stress  (Ry/bohr**3)                   (kbar)     P=   48.40
   0.00022116   0.00000000   0.00000000         32.53      0.00      0.00
   0.00000000   0.00054470   0.00000000          0.00     80.13      0.00
   0.00000000   0.00000000   0.00022116          0.00      0.00     32.53


     BFGS Geometry Optimization

     number of scf cycles    =   1
     number of bfgs steps    =   0

     energy   new            =    -364.9525200149 Ry

     new trust radius        =       0.0455057215 bohr
     new conv_thr            =       0.0000000100 Ry


ATOMIC_POSITIONS (crystal)
Pb       0.000000000   0.000000000   0.000000000    0   0   0
Ti       0.500000000   0.541891849   0.500000000
O        0.500000000   0.500331200   0.000000000
O        0.500000000   0.002856340   0.500000000
O        0.000000000   0.500331200   0.500000000



     Writing output data file PbTiO3.save/
     NEW-OLD atomic charge density approx. for the potential

     Check: negative core charge=   -0.000005

     total cpu time spent up to now is      471.5 secs

     Self-consistent Calculation

     iteration #  1     ecut=    80.00 Ry     beta= 0.70
     Davidson diagonalization with overlap
     ethr =  1.00E-06,  avg # of iterations =  5.2

     total cpu time spent up to now is      536.7 secs

     total energy              =    -364.95412224 Ry
     Harris-Foulkes estimate   =    -364.95472722 Ry
     estimated scf accuracy    <       0.00087641 Ry

     iteration #  2     ecut=    80.00 Ry     beta= 0.70
     Davidson diagonalization with overlap
     ethr =  1.99E-06,  avg # of iterations =  4.3

     total cpu time spent up to now is      580.7 secs

     total energy              =    -364.95398231 Ry
     Harris-Foulkes estimate   =    -364.95481445 Ry
     estimated scf accuracy    <       0.00197030 Ry

     iteration #  3     ecut=    80.00 Ry     beta= 0.70
     Davidson diagonalization with overlap
     ethr =  1.99E-06,  avg # of iterations =  3.9

     total cpu time spent up to now is      621.6 secs

     total energy              =    -364.95440460 Ry
     Harris-Foulkes estimate   =    -364.95450296 Ry
     estimated scf accuracy    <       0.00028688 Ry

     iteration #  4     ecut=    80.00 Ry     beta= 0.70
     Davidson diagonalization with overlap
     ethr =  6.52E-07,  avg # of iterations =  3.0

     total cpu time spent up to now is      653.4 secs

     total energy              =    -364.95444806 Ry
     Harris-Foulkes estimate   =    -364.95445135 Ry
     estimated scf accuracy    <       0.00000628 Ry

     iteration #  5     ecut=    80.00 Ry     beta= 0.70
     Davidson diagonalization with overlap
     ethr =  1.43E-08,  avg # of iterations =  3.3

     total cpu time spent up to now is      693.1 secs

     total energy              =    -364.95444998 Ry
     Harris-Foulkes estimate   =    -364.95445170 Ry
     estimated scf accuracy    <       0.00000425 Ry

     iteration #  6     ecut=    80.00 Ry     beta= 0.70
     Davidson diagonalization with overlap
     ethr =  9.66E-09,  avg # of iterations =  2.8

     total cpu time spent up to now is      725.4 secs

     total energy              =    -364.95445086 Ry
     Harris-Foulkes estimate   =    -364.95445103 Ry
     estimated scf accuracy    <       0.00000054 Ry

     iteration #  7     ecut=    80.00 Ry     beta= 0.70
     Davidson diagonalization with overlap
     ethr =  1.23E-09,  avg # of iterations =  2.8

     total cpu time spent up to now is      757.7 secs

     total energy              =    -364.95445096 Ry
     Harris-Foulkes estimate   =    -364.95445097 Ry
     estimated scf accuracy    <       0.00000001 Ry

     iteration #  8     ecut=    80.00 Ry     beta= 0.70
     Davidson diagonalization with overlap
     ethr =  2.86E-11,  avg # of iterations =  3.7

     total cpu time spent up to now is      799.4 secs

     End of self-consistent calculation

          k = 0.0500 0.0500 0.0500 (  4990 PWs)   bands (ev):

   -45.8132 -22.1373 -22.0669 -22.0668  -7.0545  -6.0279  -5.9423  -4.7703
    -4.7571  -4.7568  -4.6185  -4.6084   4.7496   7.0162   7.0520   7.2019
     9.0738   9.1000   9.3831   9.5552   9.7645   9.7827  12.7525  13.1189
    13.1230  15.0109

          k = 0.0500 0.0500 0.1500 (  4997 PWs)   bands (ev):

   -45.8129 -22.1369 -22.0784 -22.0664  -6.9690  -5.9935  -5.9104  -4.7787
    -4.7655  -4.7564  -4.6507  -4.6055   4.4331   7.0703   7.1279   7.3987
     8.8558   9.0057   9.3595   9.4321   9.6151   9.7753  13.0782  13.1282
    13.2660  15.1656

          k = 0.0500 0.0500 0.2500 (  5005 PWs)   bands (ev):

   -45.8126 -22.1362 -22.0970 -22.0658  -6.8264  -5.9334  -5.8592  -4.7931
    -4.7788  -4.7555  -4.7086  -4.5989   4.0464   7.0810   7.2457   7.3997
     8.6897   8.7657   9.2877   9.3668   9.5733   9.8470  13.1260  13.5583
    13.6353  15.1656

          k = 0.0500 0.0500 0.3500 (  5011 PWs)   bands (ev):

   -45.8122 -22.1355 -22.1154 -22.0651  -6.6775  -5.8646  -5.8107  -4.8158
    -4.7924  -4.7636  -4.7545  -4.5944   3.7477   6.7188   7.4232   7.5498
     8.3878   8.4909   9.2173   9.3399   9.6919  10.2385  13.1269  13.9923
    14.0555  14.5983

          k = 0.0500 0.0500 0.4500 (  5005 PWs)   bands (ev):

   -45.8120 -22.1350 -22.1268 -22.0647  -6.5816  -5.8121  -5.7870  -4.8457
    -4.8016  -4.7845  -4.7540  -4.5928   3.5941   6.4208   7.6010   7.7976
     8.1061   8.1879   9.1734   9.3613   9.7444  10.7009  13.1183  13.8632
    14.2496  14.3320

          k = 0.0500 0.1500 0.1500 (  4997 PWs)   bands (ev):

   -45.8127 -22.1486 -22.0779 -22.0660  -6.8749  -5.9678  -5.8826  -4.7802
    -4.7755  -4.7638  -4.6431  -4.6246   4.2000   7.0236   7.1335   7.5771
     8.6003   8.8275   9.2186   9.4658   9.5731   9.8395  13.0813  13.3993
    13.5056  15.3117

          k = 0.0500 0.1500 0.2500 (  5011 PWs)   bands (ev):

   -45.8123 -22.1479 -22.0964 -22.0653  -6.7372  -5.9158  -5.8372  -4.7992
    -4.7842  -4.7633  -4.6741  -4.6156   3.8907   6.9825   7.2492   7.5001
     8.4130   8.6351   9.0817   9.3663   9.5171  10.0138  13.3918  13.5630
    13.8113  15.3702

          k = 0.0500 0.1500 0.3500 (  5008 PWs)   bands (ev):

   -45.8120 -22.1471 -22.1149 -22.0646  -6.5961  -5.8636  -5.7863  -4.8205
    -4.7929  -4.7628  -4.7025  -4.6106   3.6339   6.7034   7.3476   7.5423
     8.1521   8.4479   9.0376   9.3762   9.5015  10.2866  13.3904  13.9882
    14.1775  14.7639

          k = 0.0500 0.1500 0.4500 (  4997 PWs)   bands (ev):

   -45.8117 -22.1466 -22.1262 -22.0642  -6.5074  -5.8310  -5.7513  -4.8370
    -4.8010  -4.7624  -4.7122  -4.6119   3.4968   6.4260   7.4506   7.7061
     7.9885   8.1720   9.0856   9.4313   9.4747  10.5064  13.3744  14.2346
    14.2717  14.4265

          k = 0.0500 0.2500 0.2500 (  4997 PWs)   bands (ev):

   -45.8120 -22.1667 -22.0956 -22.0646  -6.5933  -5.8893  -5.7913  -4.8046
    -4.7873  -4.7716  -4.6468  -4.6310   3.6561   6.8641   7.2660   7.4021
     8.1951   8.3338   8.8451   9.3062   9.7123  10.1567  13.5411  13.8187
    14.0972  15.3429

          k = 0.0500 0.2500 0.3500 (  5000 PWs)   bands (ev):

   -45.8116 -22.1659 -22.1140 -22.0639  -6.4759  -5.8539  -5.7297  -4.8145
    -4.7920  -4.7730  -4.6578  -4.6091   3.4544   6.6733   7.1411   7.4658
     7.9641   8.3021   8.7234   9.1605   9.8311  10.1819  13.7931  13.9813
    14.3734  15.0552

          k = 0.0500 0.2500 0.4500 (  5006 PWs)   bands (ev):

   -45.8113 -22.1653 -22.1253 -22.0635  -6.4092  -5.8276  -5.6846  -4.8222
    -4.7995  -4.7743  -4.6505  -4.6055   3.3408   6.4282   7.1732   7.4451
     7.8945   8.2777   8.6636   9.1602   9.8515  10.1679  13.7900  14.2244
    14.5748  14.8661

          k = 0.0500 0.3500 0.3500 (  5000 PWs)   bands (ev):

   -45.8112 -22.1845 -22.1131 -22.0632  -6.3822  -5.8044  -5.6686  -4.8127
    -4.7947  -4.7764  -4.6793  -4.5504   3.2821   6.5173   6.8511   7.4712
     7.8537   8.1681   8.6083   9.0657   9.8544  10.1858  13.9497  14.2091
    14.5771  15.3624

          k = 0.0500 0.3500 0.4500 (  4997 PWs)   bands (ev):

   -45.8110 -22.1839 -22.1244 -22.0627  -6.3521  -5.7653  -5.6114  -4.8144
    -4.7981  -4.7800  -4.6877  -4.5151   3.1880   6.3785   6.7253   7.5058
     7.7066   8.3303   8.4943   8.9651   9.6637  10.2712  14.1865  14.2162
    14.7446  15.4334

          k = 0.0500 0.4500 0.4500 (  4995 PWs)   bands (ev):

   -45.8107 -22.1954 -22.1238 -22.0623  -6.3383  -5.6961  -5.5624  -4.8162
    -4.7972  -4.7814  -4.7110  -4.4627   3.0954   6.2079   6.5911   7.5185
     7.6330   8.2944   8.5395   8.8736   9.3522  10.4527  14.1862  14.4518
    14.8640  15.7955

          k = 0.1500 0.1500 0.1500 (  4998 PWs)   bands (ev):

   -45.8125 -22.1482 -22.0776 -22.0773  -6.7942  -5.9430  -5.8575  -4.7892
    -4.7823  -4.7631  -4.6367  -4.6277   4.0433   6.9997   7.0406   7.6977
     8.4392   8.5609   9.2236   9.5248   9.6400   9.7283  13.3151  13.4923
    13.5173  15.8203

          k = 0.1500 0.1500 0.2500 (  5000 PWs)   bands (ev):

   -45.8121 -22.1474 -22.0960 -22.0768  -6.6634  -5.9022  -5.8137  -4.8062
    -4.7829  -4.7592  -4.6542  -4.6156   3.8064   6.9396   7.0327   7.5349
     8.2002   8.3674   9.2155   9.4607   9.6238   9.9136  13.4598  13.6957
    13.8065  15.4802

          k = 0.1500 0.1500 0.3500 (  5003 PWs)   bands (ev):

   -45.8117 -22.1467 -22.1144 -22.0760  -6.5334  -5.8603  -5.7638  -4.8204
    -4.7755  -4.7523  -4.6787  -4.6105   3.5927   6.7019   7.0305   7.3976
     7.9915   8.4274   8.9321   9.5309   9.6390  10.1475  13.3997  14.0424
    14.1668  14.9605

          k = 0.1500 0.1500 0.4500 (  4986 PWs)   bands (ev):

   -45.8115 -22.1462 -22.1257 -22.0756  -6.4547  -5.8341  -5.7284  -4.8262
    -4.7702  -4.7437  -4.6965  -4.6133   3.4731   6.4326   7.0192   7.4474
     7.8970   8.5382   8.6864   9.5931   9.6289  10.2696  13.3361  14.2696
    14.4107  14.7124

          k = 0.1500 0.2500 0.2500 (  4990 PWs)   bands (ev):

   -45.8117 -22.1662 -22.0952 -22.0760  -6.5167  -5.8803  -5.7936  -4.8083
    -4.7916  -4.7458  -4.6269  -4.6130   3.6474   6.7982   6.9081   7.3524
     7.8831   8.1785   9.1746   9.4695   9.7521   9.9947  13.5836  13.8392
    14.0461  15.2701

          k = 0.1500 0.2500 0.3500 (  5000 PWs)   bands (ev):

   -45.8113 -22.1654 -22.1135 -22.0753  -6.4025  -5.8648  -5.7384  -4.8116
    -4.7814  -4.7339  -4.6306  -4.5932   3.4979   6.6450   6.8558   7.0943
     7.6006   8.2243   9.1452   9.3534   9.8375   9.9974  13.6720  14.0080
    14.3059  15.2259

          k = 0.1500 0.2500 0.4500 (  5002 PWs)   bands (ev):

   -45.8111 -22.1649 -22.1248 -22.0748  -6.3387  -5.8565  -5.6932  -4.8108
    -4.7722  -4.7288  -4.6251  -4.5918   3.4076   6.4283   6.8036   7.0313
     7.5254   8.3225   8.9406   9.4438   9.7873   9.9818  13.6647  14.2128
    14.5113  15.2676

          k = 0.1500 0.3500 0.3500 (  5004 PWs)   bands (ev):

   -45.8110 -22.1840 -22.1126 -22.0745  -6.2977  -5.8337  -5.7115  -4.8071
    -4.7733  -4.7137  -4.6377  -4.5349   3.3881   6.4776   6.7555   6.8519
     7.2699   8.1916   9.0629   9.3305   9.6553  10.1524  13.8552  14.1462
    14.4827  15.5309

          k = 0.1500 0.3500 0.4500 (  4997 PWs)   bands (ev):

   -45.8107 -22.1835 -22.1239 -22.0741  -6.2666  -5.8190  -5.6582  -4.8029
    -4.7553  -4.7143  -4.6423  -4.4997   3.3243   6.3666   6.6499   6.7989
     7.0958   8.2572   8.9869   9.2748   9.4281  10.2649  14.0533  14.1895
    14.6405  15.7709

          k = 0.1500 0.4500 0.4500 (  5002 PWs)   bands (ev):

   -45.8105 -22.1949 -22.1233 -22.0736  -6.2500  -5.7603  -5.6376  -4.7995
    -4.7333  -4.6978  -4.6690  -4.4459   3.2654   6.1902   6.5558   6.8098
     6.9152   8.2609   8.7616   9.1825   9.3389  10.4393  14.1610  14.3455
    14.7491  16.1097

          k = 0.2500 0.2500 0.2500 (  4977 PWs)   bands (ev):

   -45.8113 -22.1654 -22.0946 -22.0942  -6.4008  -5.8656  -5.7867  -4.7966
    -4.7934  -4.7141  -4.6026  -4.5863   3.6128   6.6077   6.6735   7.2181
     7.6467   7.7225   9.3709   9.7334   9.7364   9.8880  13.5889  14.0148
    14.0228  15.2912

          k = 0.2500 0.2500 0.3500 (  4998 PWs)   bands (ev):

   -45.8110 -22.1646 -22.1127 -22.0936  -6.3018  -5.8600  -5.7499  -4.7915
    -4.7761  -4.6763  -4.5852  -4.5677   3.5545   6.4524   6.5382   6.8587
     7.3891   7.6895   9.1989   9.6920   9.7872  10.0269  13.6495  14.0897
    14.2922  15.4991

          k = 0.2500 0.2500 0.4500 (  5001 PWs)   bands (ev):

   -45.8107 -22.1641 -22.1239 -22.0932  -6.2525  -5.8622  -5.7075  -4.7871
    -4.7638  -4.6379  -4.5839  -4.5626   3.5091   6.3431   6.4328   6.6423
     7.3351   7.7327   8.9556   9.7162   9.7559  10.0867  13.7397  14.2009
    14.4963  15.7618

          k = 0.2500 0.3500 0.3500 (  4990 PWs)   bands (ev):

   -45.8106 -22.1832 -22.1118 -22.0929  -6.1702  -5.8658  -5.7706  -4.7819
    -4.7566  -4.6329  -4.5621  -4.5052   3.5709   6.2244   6.3504   6.6467
     7.0340   7.5667   8.7385   9.7788   9.9266  10.1527  13.8163  14.2169
    14.4278  15.8396

          k = 0.2500 0.3500 0.4500 (  4985 PWs)   bands (ev):

   -45.8104 -22.1827 -22.1231 -22.0924  -6.1374  -5.8809  -5.7236  -4.7750
    -4.7395  -4.6021  -4.5543  -4.4700   3.5765   6.1882   6.2459   6.4236
     6.8669   7.5904   8.3705   9.8044   9.9155  10.2686  14.0422  14.2289
    14.5811  16.1931

          k = 0.2500 0.4500 0.4500 (  4988 PWs)   bands (ev):

   -45.8101 -22.1941 -22.1225 -22.0919  -6.1065  -5.8458  -5.7343  -4.7699
    -4.7199  -4.5787  -4.5384  -4.4141   3.6009   6.0432   6.2303   6.2918
     6.6485   7.5679   7.9075   9.8009   9.9581  10.4251  14.2125  14.3384
    14.6785  16.5360

          k = 0.3500 0.3500 0.3500 (  4977 PWs)   bands (ev):

   -45.8102 -22.1824 -22.1112 -22.1110  -6.0812  -5.8673  -5.8070  -4.7552
    -4.7452  -4.5562  -4.4911  -4.4685   3.7640   5.9506   6.0258   6.5176
     6.9912   7.0282   8.0796  10.0601  10.1425  10.2557  13.9843  14.4035
    14.4072  16.2205

          k = 0.3500 0.3500 0.4500 (  4971 PWs)   bands (ev):

   -45.8100 -22.1819 -22.1223 -22.1106  -6.0621  -5.8759  -5.7803  -4.7454
    -4.7324  -4.5007  -4.4666  -4.4342   3.8824   5.8230   5.9043   6.3296
     6.8186   7.0198   7.5803  10.1145  10.2199  10.3720  14.2108  14.3710
    14.5748  16.6109

          k = 0.3500 0.4500 0.4500 (  4966 PWs)   bands (ev):

   -45.8098 -22.1934 -22.1218 -22.1101  -5.9705  -5.9094  -5.8133  -4.7405
    -4.7160  -4.4674  -4.4196  -4.3752   4.0811   5.6812   5.7949   6.1767
     6.6262   6.9276   7.0024  10.2150  10.3533  10.4152  14.3851  14.4760
    14.6465  16.9827

          k = 0.4500 0.4500 0.4500 (  4953 PWs)   bands (ev):

   -45.8095 -22.1929 -22.1213 -22.1213  -5.9669  -5.8673  -5.8527  -4.7238
    -4.7126  -4.4013  -4.3523  -4.3465   4.5909   5.4917   5.5506   6.0821
     6.1611   6.6142   6.6989  10.3979  10.4098  10.5304  14.5605  14.6252
    14.6264  17.3469

          k =-0.0500 0.1500 0.0500 (  4997 PWs)   bands (ev):

   -45.8129 -22.1491 -22.0664 -22.0664  -6.9583  -5.9998  -5.9084  -4.7698
    -4.7668  -4.7641  -4.6444  -4.6133   4.4273   7.0630   7.0701   7.4085
     8.8650   8.8964   9.3763   9.3948   9.7810   9.7882  12.7541  13.3893
    13.4024  15.0125

          k =-0.0500 0.2500 0.0500 (  5005 PWs)   bands (ev):

   -45.8126 -22.1680 -22.0657 -22.0657  -6.7952  -5.9570  -5.8489  -4.7848
    -4.7749  -4.7686  -4.7048  -4.6066   4.0294   7.0478   7.1634   7.3403
     8.5889   8.6196   9.3262   9.4748   9.8338   9.9178  12.7567  13.8029
    13.8236  15.0155

          k =-0.0500 0.3500 0.0500 (  5011 PWs)   bands (ev):

   -45.8122 -22.1869 -22.0650 -22.0650  -6.6197  -5.9200  -5.7815  -4.8158
    -4.7843  -4.7677  -4.7602  -4.6021   3.7187   6.6606   7.2691   7.4010
     8.3410   8.3511   9.2637   9.6851   9.8859  10.3211  12.7582  14.1980
    14.2226  14.6662

          k =-0.0500 0.4500 0.0500 (  5005 PWs)   bands (ev):

   -45.8120 -22.1985 -22.0646 -22.0646  -6.5022  -5.9025  -5.7344  -4.8529
    -4.7895  -4.7818  -4.7671  -4.6006   3.5573   6.3385   7.3461   7.5165
     8.1591   8.1893   9.2231   9.7700   9.9210  10.7926  12.7562  13.9123
    14.4358  14.4651

          k = 0.1500 0.0500 0.1500 (  4997 PWs)   bands (ev):

   -45.8127 -22.1364 -22.0781 -22.0778  -6.8875  -5.9658  -5.8771  -4.7879
    -4.7659  -4.7632  -4.6498  -4.6198   4.2076   7.0196   7.1919   7.5622
     8.6619   8.7342   9.3057   9.4171   9.6000   9.8107  13.2327  13.2834
    13.3512  15.4788

          k =-0.0500 0.2500 0.1500 (  5011 PWs)   bands (ev):

   -45.8123 -22.1675 -22.0772 -22.0653  -6.7171  -5.9281  -5.8334  -4.7974
    -4.7779  -4.7719  -4.6700  -4.6223   3.8798   6.9409   7.1968   7.4883
     8.3212   8.5887   9.0874   9.5023   9.6189  10.0514  13.0803  13.8117
    13.8818  15.3437

          k = 0.2500 0.0500 0.1500 (  5011 PWs)   bands (ev):

   -45.8123 -22.1357 -22.0965 -22.0772  -6.7541  -5.9155  -5.8234  -4.8012
    -4.7754  -4.7633  -4.6805  -4.6171   3.8990   6.9988   7.2601   7.5001
     8.3919   8.5294   9.1473   9.4496   9.6235   9.9348  13.2549  13.6231
    13.7417  15.5139

          k =-0.0500 0.3500 0.1500 (  5008 PWs)   bands (ev):

   -45.8120 -22.1863 -22.0764 -22.0646  -6.5515  -5.8900  -5.7793  -4.8226
    -4.7810  -4.7753  -4.7005  -4.6176   3.6111   6.6240   7.2116   7.4856
     8.0994   8.3687   9.1560   9.4913   9.6759  10.3684  13.0728  14.2033
    14.2466  14.8457

          k = 0.3500 0.0500 0.1500 (  5008 PWs)   bands (ev):

   -45.8120 -22.1350 -22.1149 -22.0765  -6.6199  -5.8532  -5.7725  -4.8194
    -4.7817  -4.7628  -4.7171  -4.6124   3.6417   6.7174   7.2951   7.5811
     8.1132   8.4819   8.8941   9.4933   9.6663  10.2520  13.2401  14.0330
    14.1264  14.8082

          k =-0.0500 0.4500 0.1500 (  4997 PWs)   bands (ev):

   -45.8117 -22.1979 -22.0760 -22.0641  -6.4446  -5.8666  -5.7436  -4.8441
    -4.7864  -4.7754  -4.7112  -4.6189   3.4660   6.3234   7.2261   7.5978
     7.9610   8.2033   9.2507   9.4682   9.7139  10.6153  13.0589  14.2982
    14.4486  14.5113

          k = 0.4500 0.0500 0.1500 (  4997 PWs)   bands (ev):

   -45.8117 -22.1346 -22.1262 -22.0760  -6.5373  -5.8013  -5.7480  -4.8361
    -4.7865  -4.7624  -4.7334  -4.6126   3.5039   6.4297   7.3924   7.6900
     8.0294   8.2433   8.8638   9.4776   9.7076  10.5259  13.2092  14.2832
    14.3077  14.3735

          k = 0.2500 0.0500 0.2500 (  4997 PWs)   bands (ev):

   -45.8120 -22.1351 -22.0959 -22.0954  -6.6429  -5.8744  -5.7646  -4.8027
    -4.7781  -4.7695  -4.6496  -4.6444   3.6760   6.9462   7.2242   7.4699
     8.1218   8.1880   9.1066   9.3074   9.8239  10.0097  13.5476  13.6752
    14.0219  15.4312

          k =-0.0500 0.3500 0.2500 (  5000 PWs)   bands (ev):

   -45.8116 -22.1854 -22.0948 -22.0639  -6.4547  -5.8500  -5.7413  -4.8157
    -4.7888  -4.7768  -4.6588  -4.6106   3.4424   6.5783   7.1578   7.3945
     7.9967   8.2611   8.7079   9.3336   9.7865  10.2666  13.5303  14.2111
    14.3772  15.1272

          k = 0.3500 0.0500 0.2500 (  5000 PWs)   bands (ev):

   -45.8116 -22.1343 -22.1140 -22.0949  -6.5432  -5.8094  -5.7075  -4.8093
    -4.7809  -4.7716  -4.6634  -4.6305   3.4729   6.7215   7.1071   7.4709
     7.9197   8.1978   8.8089   9.3478   9.8781  10.1597  13.5785  14.0335
    14.3113  15.1051

          k =-0.0500 0.4500 0.2500 (  5006 PWs)   bands (ev):

   -45.8113 -22.1969 -22.0943 -22.0634  -6.3761  -5.8079  -5.7142  -4.8281
    -4.7879  -4.7840  -4.6551  -4.6047   3.3207   6.2967   7.1498   7.3722
     7.9551   8.1903   8.7062   9.3717   9.7652  10.3197  13.5191  14.4534
    14.5410  14.9981

          k = 0.4500 0.0500 0.2500 (  5006 PWs)   bands (ev):

   -45.8113 -22.1339 -22.1253 -22.0944  -6.4895  -5.7474  -5.6796  -4.8187
    -4.7845  -4.7744  -4.6550  -4.6332   3.3576   6.4399   7.1851   7.3520
     7.9609   8.2788   8.5343   9.4168   9.8222  10.2732  13.5630  14.3010
    14.5038  14.8993

          k = 0.3500 0.0500 0.3500 (  5000 PWs)   bands (ev):

   -45.8112 -22.1336 -22.1133 -22.1130  -6.4906  -5.7273  -5.6404  -4.8041
    -4.7858  -4.7713  -4.6817  -4.5843   3.3097   6.6752   6.7894   7.4519
     7.6663   8.1928   8.7942   9.0980   9.8703  10.2391  13.9453  14.0715
    14.5134  15.3621

          k =-0.0500 0.4500 0.3500 (  4997 PWs)   bands (ev):

   -45.8110 -22.1960 -22.1125 -22.0627  -6.3432  -5.7425  -5.6333  -4.8177
    -4.7948  -4.7821  -4.6899  -4.5144   3.1798   6.2609   6.8144   7.4037
     7.8494   8.1733   8.5363   9.0651   9.6442  10.3164  13.9430  14.4533
    14.7220  15.5534

          k = 0.4500 0.0500 0.3500 (  4997 PWs)   bands (ev):

   -45.8110 -22.1331 -22.1244 -22.1126  -6.4701  -5.6498  -5.6045  -4.8070
    -4.7847  -4.7785  -4.6920  -4.5527   3.2125   6.4149   6.8019   7.3435
     7.6346   8.3549   8.5805   9.0820   9.6797  10.3885  13.9952  14.2966
    14.6581  15.4596

          k = 0.4500 0.0500 0.4500 (  4995 PWs)   bands (ev):

   -45.8107 -22.1327 -22.1239 -22.1238  -6.4692  -5.5692  -5.5556  -4.8061
    -4.7832  -4.7792  -4.7183  -4.5041   3.1240   6.3002   6.6585   7.3920
     7.4162   8.4943   8.6266   8.8426   9.4267  10.5615  14.2796  14.3022
    14.7599  15.7412

          k =-0.1500 0.2500 0.1500 (  5000 PWs)   bands (ev):

   -45.8121 -22.1670 -22.0768 -22.0766  -6.6392  -5.9062  -5.8246  -4.8054
    -4.7878  -4.7585  -4.6450  -4.6227   3.7943   6.9287   6.9535   7.5397
     8.2116   8.3780   9.0404   9.5875   9.7016   9.9390  13.2881  13.8416
    13.8855  15.4998

          k =-0.1500 0.3500 0.1500 (  5003 PWs)   bands (ev):

   -45.8117 -22.1858 -22.0761 -22.0759  -6.4792  -5.8688  -5.7904  -4.8244
    -4.7837  -4.7463  -4.6679  -4.6180   3.5682   6.6261   6.8895   7.4201
     8.0665   8.3755   8.8533   9.6057   9.7509  10.2193  13.2250  14.2037
    14.2244  15.0018

          k =-0.1500 0.4500 0.1500 (  4986 PWs)   bands (ev):

   -45.8115 -22.1973 -22.0756 -22.0754  -6.3780  -5.8447  -5.7684  -4.8339
    -4.7809  -4.7319  -4.6852  -4.6218   3.4407   6.3279   6.8418   7.4717
     8.0041   8.3520   8.7924   9.6035   9.7805  10.3605  13.1659  14.4347
    14.4363  14.7787

          k = 0.2500 0.1500 0.2500 (  4990 PWs)   bands (ev):

   -45.8117 -22.1467 -22.0954 -22.0950  -6.5503  -5.8726  -5.7729  -4.8051
    -4.7891  -4.7448  -4.6303  -4.6184   3.6605   6.8308   6.9400   7.3466
     7.8391   8.1561   9.3256   9.4489   9.8339   9.8437  13.6173  13.7856
    13.9799  15.2776

          k =-0.1500 0.3500 0.2500 (  5000 PWs)   bands (ev):

   -45.8113 -22.1849 -22.0943 -22.0753  -6.3753  -5.8485  -5.7719  -4.8145
    -4.7863  -4.7256  -4.6300  -4.5957   3.4847   6.5627   6.7781   7.1147
     7.7391   8.1888   8.9371   9.5733   9.8188  10.0524  13.5190  14.1624
    14.3096  15.2529

          k = 0.3500 0.1500 0.2500 (  5000 PWs)   bands (ev):

   -45.8113 -22.1459 -22.1135 -22.0944  -6.4500  -5.8306  -5.7263  -4.8075
    -4.7811  -4.7253  -4.6310  -4.6111   3.5105   6.6754   6.8448   7.0661
     7.6470   8.1620   9.1311   9.4930   9.7937  10.0287  13.5880  14.0424
    14.2584  15.2330

          k =-0.1500 0.4500 0.2500 (  5002 PWs)   bands (ev):

   -45.8111 -22.1964 -22.0938 -22.0748  -6.2952  -5.8135  -5.7630  -4.8167
    -4.7811  -4.7085  -4.6347  -4.5900   3.3857   6.3028   6.6629   7.1037
     7.7191   8.2648   8.7559   9.6327   9.7771  10.0672  13.4926  14.3915
    14.5043  15.3379

          k = 0.4500 0.1500 0.2500 (  5002 PWs)   bands (ev):

   -45.8111 -22.1455 -22.1248 -22.0939  -6.3971  -5.7987  -5.6914  -4.8073
    -4.7739  -4.7092  -4.6295  -4.6158   3.4192   6.4377   6.7614   7.0312
     7.6108   8.2315   8.9381   9.5529   9.7069  10.1024  13.5644  14.2582
    14.4679  15.2766

          k = 0.3500 0.1500 0.3500 (  5004 PWs)   bands (ev):

   -45.8110 -22.1452 -22.1128 -22.1125  -6.3950  -5.7664  -5.6860  -4.7985
    -4.7726  -4.7044  -4.6314  -4.5685   3.4128   6.6458   6.6568   6.8369
     7.2476   8.1413   9.1883   9.3434   9.5825  10.2419  13.8453  14.0851
    14.4328  15.5209

          k =-0.1500 0.4500 0.3500 (  4997 PWs)   bands (ev):

   -45.8107 -22.1955 -22.1121 -22.0741  -6.2549  -5.7820  -5.7001  -4.8052
    -4.7630  -4.6942  -4.6545  -4.4985   3.3152   6.2441   6.7032   6.7474
     7.2280   8.2203   8.8721   9.3546   9.4843  10.2774  13.8920  14.3596
    14.6299  15.8269

          k = 0.4500 0.1500 0.3500 (  4997 PWs)   bands (ev):

   -45.8107 -22.1447 -22.1239 -22.1121  -6.3753  -5.7145  -5.6548  -4.7947
    -4.7595  -4.6917  -4.6420  -4.5379   3.3471   6.4073   6.6722   6.7291
     7.1359   8.1813   9.0246   9.3397   9.4212  10.3772  13.9416  14.2394
    14.5858  15.7772

          k = 0.4500 0.1500 0.4500 (  5002 PWs)   bands (ev):

   -45.8105 -22.1442 -22.1234 -22.1234  -6.3758  -5.6440  -5.6316  -4.7895
    -4.7356  -4.6793  -4.6650  -4.4888   3.2943   6.2903   6.6149   6.7444
     6.8288   8.2029   8.8372   9.2774   9.2908  10.5555  14.2104  14.2517
    14.6913  16.0912

          k =-0.2500 0.3500 0.2500 (  4998 PWs)   bands (ev):

   -45.8110 -22.1841 -22.0937 -22.0935  -6.2582  -5.8466  -5.8007  -4.7969
    -4.7769  -4.6745  -4.5857  -4.5611   3.5395   6.3755   6.5366   6.8343
     7.5676   7.6052   9.0965   9.7638   9.8522   9.9736  13.5937  14.1705
    14.3021  15.5074

          k =-0.2500 0.4500 0.2500 (  5001 PWs)   bands (ev):

   -45.8107 -22.1955 -22.0932 -22.0930  -6.1803  -5.8218  -5.8095  -4.7946
    -4.7666  -4.6301  -4.5938  -4.5478   3.4838   6.2369   6.3210   6.7388
     7.5422   7.6328   8.8578   9.7207   9.8829  10.0289  13.6480  14.3289
    14.5070  15.7997

          k = 0.3500 0.2500 0.3500 (  4990 PWs)   bands (ev):

   -45.8106 -22.1639 -22.1120 -22.1118  -6.2379  -5.8219  -5.7505  -4.7733
    -4.7619  -4.6231  -4.5481  -4.5354   3.5874   6.2811   6.3030   6.6655
     7.0677   7.4993   8.7637   9.8103   9.8379  10.2472  13.8155  14.1942
    14.4033  15.8348

          k =-0.2500 0.4500 0.3500 (  4985 PWs)   bands (ev):

   -45.8104 -22.1947 -22.1113 -22.0924  -6.1140  -5.8375  -5.7858  -4.7775
    -4.7412  -4.5955  -4.5587  -4.4671   3.5648   6.0558   6.3154   6.4109
     6.9693   7.5535   8.3630   9.7736   9.9616  10.2600  13.9552  14.3332
    14.5799  16.2053

          k = 0.4500 0.2500 0.3500 (  4985 PWs)   bands (ev):

   -45.8104 -22.1634 -22.1231 -22.1114  -6.2196  -5.8027  -5.7223  -4.7673
    -4.7462  -4.5779  -4.5479  -4.5052   3.5931   6.1453   6.2897   6.4048
     6.9559   7.4986   8.3951   9.8292   9.8532  10.3711  14.0040  14.2457
    14.5569  16.1896

          k = 0.4500 0.2500 0.4500 (  4988 PWs)   bands (ev):

   -45.8101 -22.1629 -22.1226 -22.1226  -6.2224  -5.7408  -5.7293  -4.7603
    -4.7280  -4.5444  -4.5340  -4.4592   3.6299   6.1250   6.1516   6.2845
     6.6993   7.4768   7.9571   9.8635   9.8659  10.5459  14.2354  14.2938
    14.6461  16.5232

          k =-0.3500 0.4500 0.3500 (  4971 PWs)   bands (ev):

   -45.8100 -22.1939 -22.1106 -22.1105  -5.9943  -5.8816  -5.8389  -4.7517
    -4.7276  -4.5165  -4.4609  -4.4214   3.8648   5.7536   6.0073   6.2648
     6.8542   7.0194   7.5781  10.1499  10.2444  10.2892  14.1698  14.4279
    14.5801  16.6101

          k = 0.4500 0.3500 0.4500 (  4966 PWs)   bands (ev):

   -45.8098 -22.1815 -22.1218 -22.1218  -6.0663  -5.8209  -5.8091  -4.7308
    -4.7252  -4.4362  -4.4151  -4.4125   4.1060   5.7079   5.7206   6.2075
     6.6972   6.8705   6.9932  10.2359  10.2432  10.5364  14.4014  14.4631
    14.6254  16.9802

     the Fermi energy is    10.6716 ev

!    total energy              =    -364.95445097 Ry
     Harris-Foulkes estimate   =    -364.95445097 Ry
     estimated scf accuracy    <          1.6E-09 Ry

     The total energy is the sum of the following terms:

     one-electron contribution =     -81.15980650 Ry
     hartree contribution      =      70.40626727 Ry
     xc contribution           =     -85.87333262 Ry
     ewald contribution        =    -268.33358559 Ry
     smearing contrib. (-TS)   =       0.00600647 Ry

     convergence has been achieved in   8 iterations

     Forces acting on atoms (cartesian axes, Ry/au):

     atom    1 type  1   force =     0.00000000    0.01688272    0.00000000
     atom    2 type  2   force =     0.00000000   -0.02790754    0.00000000
     atom    3 type  3   force =     0.00000000    0.00301624    0.00000000
     atom    4 type  3   force =     0.00000000    0.00499234    0.00000000
     atom    5 type  3   force =     0.00000000    0.00301624    0.00000000

     Total force =     0.028670     Total SCF correction =     0.000019


     Computing stress (Cartesian axis) and pressure

          total   stress  (Ry/bohr**3)                   (kbar)     P=   39.51
   0.00020112   0.00000000   0.00000000         29.59      0.00      0.00
   0.00000000   0.00040353   0.00000000          0.00     59.36      0.00
   0.00000000   0.00000000   0.00020112          0.00      0.00     29.59


     number of scf cycles    =   2
     number of bfgs steps    =   1

     energy   old            =    -364.9525200149 Ry
     energy   new            =    -364.9544509657 Ry

     CASE: energy  _new < energy  _old

     new trust radius        =       0.0500562936 bohr
     new conv_thr            =       0.0000000019 Ry


ATOMIC_POSITIONS (crystal)
Pb       0.000000000   0.000000000   0.000000000    0   0   0
Ti       0.500000000   0.535172884   0.500000000
O        0.500000000   0.501029401   0.000000000
O        0.500000000   0.004208307   0.500000000
O        0.000000000   0.501029401   0.500000000



     Writing output data file PbTiO3.save/
     NEW-OLD atomic charge density approx. for the potential

     Check: negative core charge=   -0.000005

     total cpu time spent up to now is      821.3 secs

     Self-consistent Calculation

     iteration #  1     ecut=    80.00 Ry     beta= 0.70
     Davidson diagonalization with overlap
     ethr =  1.00E-06,  avg # of iterations =  5.0

     total cpu time spent up to now is      887.0 secs

     total energy              =    -364.95536112 Ry
     Harris-Foulkes estimate   =    -364.95576356 Ry
     estimated scf accuracy    <       0.00061124 Ry

     iteration #  2     ecut=    80.00 Ry     beta= 0.70
     Davidson diagonalization with overlap
     ethr =  1.39E-06,  avg # of iterations =  4.2

     total cpu time spent up to now is      928.7 secs

     total energy              =    -364.95528530 Ry
     Harris-Foulkes estimate   =    -364.95577031 Ry
     estimated scf accuracy    <       0.00107645 Ry

     iteration #  3     ecut=    80.00 Ry     beta= 0.70
     Davidson diagonalization with overlap
     ethr =  1.39E-06,  avg # of iterations =  3.8

     total cpu time spent up to now is      966.5 secs

     total energy              =    -364.95552865 Ry
     Harris-Foulkes estimate   =    -364.95561396 Ry
     estimated scf accuracy    <       0.00025149 Ry

     iteration #  4     ecut=    80.00 Ry     beta= 0.70
     Davidson diagonalization with overlap
     ethr =  5.72E-07,  avg # of iterations =  3.0

     total cpu time spent up to now is      997.2 secs

     total energy              =    -364.95556692 Ry
     Harris-Foulkes estimate   =    -364.95556857 Ry
     estimated scf accuracy    <       0.00000340 Ry

     iteration #  5     ecut=    80.00 Ry     beta= 0.70
     Davidson diagonalization with overlap
     ethr =  7.72E-09,  avg # of iterations =  3.4

     total cpu time spent up to now is     1038.2 secs

     total energy              =    -364.95556858 Ry
     Harris-Foulkes estimate   =    -364.95556929 Ry
     estimated scf accuracy    <       0.00000159 Ry

     iteration #  6     ecut=    80.00 Ry     beta= 0.70
     Davidson diagonalization with overlap
     ethr =  3.61E-09,  avg # of iterations =  3.0

     total cpu time spent up to now is     1072.1 secs

     total energy              =    -364.95556893 Ry
     Harris-Foulkes estimate   =    -364.95556915 Ry
     estimated scf accuracy    <       0.00000073 Ry

     iteration #  7     ecut=    80.00 Ry     beta= 0.70
     Davidson diagonalization with overlap
     ethr =  1.65E-09,  avg # of iterations =  2.6

     total cpu time spent up to now is     1102.8 secs

     total energy              =    -364.95556904 Ry
     Harris-Foulkes estimate   =    -364.95556904 Ry
     estimated scf accuracy    <          5.3E-09 Ry

     iteration #  8     ecut=    80.00 Ry     beta= 0.70
     Davidson diagonalization with overlap
     ethr =  1.20E-11,  avg # of iterations =  4.0

     total cpu time spent up to now is     1149.5 secs

     End of self-consistent calculation

          k = 0.0500 0.0500 0.0500 (  4990 PWs)   bands (ev):

   -45.8643 -22.1595 -22.1176 -22.1175  -7.0547  -6.0174  -5.9601  -4.7577
    -4.7490  -4.7487  -4.6096  -4.6030   4.7615   7.0196   7.0435   7.1940
     9.1674   9.1888   9.3918   9.6103   9.7658   9.8128  12.7156  12.9665
    12.9665  14.9514

          k = 0.0500 0.0500 0.1500 (  4997 PWs)   bands (ev):

   -45.8640 -22.1591 -22.1291 -22.1171  -6.9677  -5.9838  -5.9277  -4.7661
    -4.7573  -4.7482  -4.6424  -4.5992   4.4447   7.0704   7.1147   7.3957
     8.9384   9.0511   9.3794   9.4916   9.6107   9.7990  12.9669  13.0510
    13.1685  15.0577

          k = 0.0500 0.0500 0.2500 (  5005 PWs)   bands (ev):

   -45.8637 -22.1584 -22.1476 -22.1164  -6.8225  -5.9255  -5.8754  -4.7814
    -4.7700  -4.7473  -4.7002  -4.5921   4.0582   7.0734   7.2401   7.3881
     8.7116   8.7821   9.3150   9.4226   9.6161   9.8692  12.9712  13.5286
    13.5775  15.0570

          k = 0.0500 0.0500 0.3500 (  5011 PWs)   bands (ev):

   -45.8633 -22.1662 -22.1576 -22.1158  -6.6704  -5.8599  -5.8246  -4.8061
    -4.7816  -4.7548  -4.7463  -4.5872   3.7607   6.6977   7.4157   7.5328
     8.3889   8.4748   9.2470   9.4393   9.7390  10.2565  12.9723  13.9674
    14.0085  14.6197

          k = 0.0500 0.0500 0.4500 (  5005 PWs)   bands (ev):

   -45.8630 -22.1775 -22.1572 -22.1153  -6.5724  -5.8114  -5.7978  -4.8370
    -4.7891  -4.7763  -4.7457  -4.5853   3.6085   6.3875   7.5893   7.7775
     8.1080   8.1648   9.2019   9.4762   9.7900  10.7192  12.9672  13.8797
    14.2281  14.2815

          k = 0.0500 0.1500 0.1500 (  4997 PWs)   bands (ev):

   -45.8638 -22.1708 -22.1286 -22.1167  -6.8759  -5.9561  -5.9002  -4.7704
    -4.7644  -4.7556  -4.6359  -4.6168   4.2132   7.0226   7.1394   7.5729
     8.6548   8.8784   9.2572   9.4909   9.5771   9.8326  13.0474  13.2645
    13.4142  15.2407

          k = 0.0500 0.1500 0.2500 (  5011 PWs)   bands (ev):

   -45.8634 -22.1700 -22.1471 -22.1160  -6.7359  -5.9061  -5.8525  -4.7893
    -4.7728  -4.7550  -4.6662  -4.6088   3.9035   6.9796   7.2498   7.4941
     8.4213   8.6632   9.0982   9.4230   9.5422  10.0137  13.2584  13.5322
    13.7531  15.3097

          k = 0.0500 0.1500 0.3500 (  5008 PWs)   bands (ev):

   -45.8630 -22.1694 -22.1654 -22.1153  -6.5927  -5.8563  -5.7985  -4.8109
    -4.7808  -4.7546  -4.6954  -4.6035   3.6471   6.6854   7.3368   7.5391
     8.1464   8.4518   9.0648   9.4479   9.5278  10.2973  13.2547  13.9658
    14.1308  14.7832

          k = 0.0500 0.1500 0.4500 (  4997 PWs)   bands (ev):

   -45.8628 -22.1769 -22.1688 -22.1149  -6.5027  -5.8242  -5.7622  -4.8281
    -4.7882  -4.7542  -4.7057  -4.6043   3.5106   6.3940   7.4371   7.6976
     7.9893   8.1662   9.1274   9.4907   9.5066  10.5242  13.2407  14.2208
    14.2854  14.3791

          k = 0.0500 0.2500 0.2500 (  4997 PWs)   bands (ev):

   -45.8630 -22.1888 -22.1463 -22.1153  -6.5978  -5.8768  -5.8040  -4.7947
    -4.7755  -4.7630  -4.6382  -4.6253   3.6711   6.8799   7.2634   7.4029
     8.2051   8.3420   8.8733   9.3105   9.7470  10.1424  13.5125  13.7066
    14.0441  15.3310

          k = 0.0500 0.2500 0.3500 (  5000 PWs)   bands (ev):

   -45.8627 -22.1879 -22.1647 -22.1146  -6.4801  -5.8403  -5.7399  -4.8043
    -4.7800  -4.7647  -4.6497  -4.6039   3.4680   6.6673   7.1289   7.4679
     7.9748   8.3026   8.7262   9.1997   9.8624  10.1810  13.6822  13.9593
    14.3331  15.0637

          k = 0.0500 0.2500 0.4500 (  5006 PWs)   bands (ev):

   -45.8624 -22.1874 -22.1760 -22.1141  -6.4140  -5.8099  -5.6957  -4.8128
    -4.7867  -4.7661  -4.6426  -4.6007   3.3539   6.4007   7.1698   7.4328
     7.9292   8.2621   8.6590   9.2109   9.8683  10.1890  13.6762  14.2113
    14.5359  14.8809

          k = 0.0500 0.3500 0.3500 (  5000 PWs)   bands (ev):

   -45.8623 -22.2065 -22.1638 -22.1138  -6.3950  -5.7820  -5.6787  -4.8020
    -4.7829  -4.7676  -4.6707  -4.5465   3.2965   6.5467   6.8076   7.4908
     7.8516   8.1719   8.6209   9.0604   9.8822  10.1857  13.9333  14.1114
    14.5464  15.3514

          k = 0.0500 0.3500 0.4500 (  4997 PWs)   bands (ev):

   -45.8621 -22.2059 -22.1751 -22.1134  -6.3655  -5.7373  -5.6232  -4.8043
    -4.7853  -4.7719  -4.6794  -4.5117   3.2002   6.3705   6.7116   7.4947
     7.7386   8.3236   8.4910   8.9771   9.6779  10.2932  14.0987  14.1975
    14.7146  15.4398

          k = 0.0500 0.4500 0.4500 (  4995 PWs)   bands (ev):

   -45.8618 -22.2173 -22.1745 -22.1130  -6.3550  -5.6635  -5.5755  -4.8054
    -4.7842  -4.7735  -4.7025  -4.4600   3.1073   6.2237   6.5575   7.5394
     7.6182   8.3291   8.5232   8.8560   9.3694  10.4727  14.1841  14.3592
    14.8422  15.7747

          k = 0.1500 0.1500 0.1500 (  4998 PWs)   bands (ev):

   -45.8636 -22.1703 -22.1283 -22.1280  -6.7933  -5.9322  -5.8748  -4.7779
    -4.7736  -4.7542  -4.6274  -4.6216   4.0556   7.0090   7.0349   7.7001
     8.4857   8.5701   9.3066   9.5369   9.6176   9.7195  13.2851  13.4055
    13.4212  15.7644

          k = 0.1500 0.1500 0.2500 (  5000 PWs)   bands (ev):

   -45.8632 -22.1696 -22.1466 -22.1274  -6.6591  -5.8941  -5.8294  -4.7963
    -4.7735  -4.7499  -4.6451  -4.6088   3.8177   6.9417   7.0316   7.5363
     8.2203   8.3715   9.2304   9.4960   9.6430   9.9033  13.3741  13.6668
    13.7480  15.4888

          k = 0.1500 0.1500 0.3500 (  5003 PWs)   bands (ev):

   -45.8628 -22.1690 -22.1649 -22.1267  -6.5253  -5.8562  -5.7769  -4.8112
    -4.7665  -4.7421  -4.6696  -4.6032   3.6038   6.6854   7.0273   7.3992
     7.9998   8.4375   8.9240   9.5757   9.6606  10.1492  13.3131  14.0258
    14.1183  14.9678

          k = 0.1500 0.1500 0.4500 (  4986 PWs)   bands (ev):

   -45.8626 -22.1764 -22.1683 -22.1263  -6.4441  -5.8327  -5.7396  -4.8174
    -4.7617  -4.7321  -4.6879  -4.6058   3.4847   6.4008   7.0141   7.4554
     7.8990   8.5377   8.6946   9.6287   9.6526  10.2778  13.2510  14.2580
    14.3622  14.7223

          k = 0.1500 0.2500 0.2500 (  4990 PWs)   bands (ev):

   -45.8628 -22.1883 -22.1459 -22.1267  -6.5183  -5.8679  -5.8076  -4.7982
    -4.7813  -4.7365  -4.6174  -4.6076   3.6614   6.8147   6.9201   7.3485
     7.8806   8.1624   9.2452   9.4452   9.7814   9.9715  13.5617  13.7608
    13.9899  15.2672

          k = 0.1500 0.2500 0.3500 (  5000 PWs)   bands (ev):

   -45.8624 -22.1875 -22.1642 -22.1260  -6.4022  -5.8536  -5.7496  -4.8018
    -4.7720  -4.7228  -4.6220  -4.5882   3.5105   6.6439   6.8585   7.0827
     7.6166   8.2023   9.1302   9.4056   9.8661   9.9887  13.6045  13.9835
    14.2592  15.2231

          k = 0.1500 0.2500 0.4500 (  5002 PWs)   bands (ev):

   -45.8622 -22.1870 -22.1755 -22.1255  -6.3379  -5.8438  -5.7042  -4.8013
    -4.7637  -4.7152  -4.6178  -4.5869   3.4195   6.4021   6.7943   7.0391
     7.5504   8.2993   8.9201   9.4913   9.8021   9.9994  13.5838  14.2039
    14.4659  15.2778

          k = 0.1500 0.3500 0.3500 (  5004 PWs)   bands (ev):

   -45.8621 -22.2060 -22.1633 -22.1252  -6.3076  -5.8130  -5.7211  -4.7965
    -4.7632  -4.7035  -4.6288  -4.5311   3.4023   6.5113   6.7371   6.8437
[...]

   -45.8456 -22.1969 -22.1323 -22.1320  -6.4987  -5.9644  -5.8848  -4.6860
    -4.6849  -4.6080  -4.4885  -4.4127   3.6321   6.5352   6.6058   7.1306
     7.6816   7.7009   9.3260   9.5917   9.8055   9.8163  13.5659  13.9617
    14.0474  15.4457

          k = 0.2500 0.2500 0.3500 (  4998 PWs)   bands (ev):

   -45.8453 -22.1961 -22.1502 -22.1314  -6.3763  -5.9458  -5.8934  -4.6832
    -4.6668  -4.5717  -4.4592  -4.3964   3.5467   6.3929   6.4595   6.8040
     7.3695   7.7304   9.2518   9.6421   9.7243   9.9207  13.6776  14.0284
    14.2622  15.6472

          k = 0.2500 0.2500 0.4500 (  5001 PWs)   bands (ev):

   -45.8450 -22.1955 -22.1614 -22.1309  -6.3095  -5.9347  -5.8876  -4.6799
    -4.6546  -4.5407  -4.4430  -4.3941   3.4881   6.2809   6.3438   6.6233
     7.2860   7.7987   9.0502   9.6614   9.6838   9.9756  13.7710  14.1223
    14.4523  15.9230

          k = 0.2500 0.3500 0.3500 (  4990 PWs)   bands (ev):

   -45.8449 -22.2145 -22.1494 -22.1306  -6.2938  -5.9522  -5.8383  -4.6717
    -4.6496  -4.5419  -4.4352  -4.3502   3.5836   6.1686   6.2380   6.6203
     6.9978   7.5588   8.9083   9.7198   9.7695  10.0980  13.8153  14.2142
    14.3981  15.9432

          k = 0.2500 0.3500 0.4500 (  4985 PWs)   bands (ev):

   -45.8447 -22.2140 -22.1605 -22.1301  -6.2552  -5.9050  -5.8579  -4.6661
    -4.6339  -4.5158  -4.4192  -4.3204   3.5787   6.0648   6.1551   6.4081
     6.8612   7.5987   8.5695   9.7396   9.7648  10.2151  14.0536  14.1852
    14.5451  16.3224

          k = 0.2500 0.4500 0.4500 (  4988 PWs)   bands (ev):

   -45.8444 -22.2253 -22.1600 -22.1297  -6.2482  -5.9056  -5.7900  -4.6614
    -4.6158  -4.4984  -4.4061  -4.2754   3.6219   5.9590   6.0290   6.2917
     6.6354   7.5566   8.1812   9.7492   9.7948  10.3771  14.1682  14.3554
    14.6339  16.6185

          k = 0.3500 0.3500 0.3500 (  4977 PWs)   bands (ev):

   -45.8445 -22.2137 -22.1487 -22.1486  -6.1656  -5.9709  -5.8854  -4.6427
    -4.6407  -4.4729  -4.3639  -4.3213   3.7049   5.9399   5.9598   6.4258
     6.9929   7.0412   8.2960  10.0019  10.0367  10.1512  13.9814  14.3512
    14.3825  16.3398

          k = 0.3500 0.3500 0.4500 (  4971 PWs)   bands (ev):

   -45.8443 -22.2131 -22.1598 -22.1482  -6.1116  -5.9497  -5.9178  -4.6371
    -4.6231  -4.4218  -4.3366  -4.2946   3.7674   5.7744   5.9187   6.2432
     6.8111   7.0494   7.8233  10.0645  10.1382  10.2498  14.1906  14.3205
    14.5240  16.7503

          k = 0.3500 0.4500 0.4500 (  4966 PWs)   bands (ev):

   -45.8441 -22.2245 -22.1593 -22.1477  -6.1054  -5.9687  -5.8539  -4.6284
    -4.6108  -4.3980  -4.2982  -4.2465   3.9711   5.6247   5.7118   6.1107
     6.6267   6.9633   7.3188  10.1710  10.1926  10.3762  14.3451  14.4492
    14.5931  17.0849

          k = 0.4500 0.4500 0.4500 (  4953 PWs)   bands (ev):

   -45.8438 -22.2240 -22.1588 -22.1588  -6.0186  -6.0008  -5.8915  -4.6092
    -4.6071  -4.3336  -4.2352  -4.2290   4.2383   5.5124   5.5546   6.0088
     6.5829   6.6742   6.6810  10.3654  10.3657  10.3833  14.5102  14.5694
    14.5727  17.4760

          k =-0.0500 0.1500 0.0500 (  4997 PWs)   bands (ev):

   -45.8472 -22.1806 -22.1045 -22.1045  -7.0613  -6.0612  -5.9729  -4.6708
    -4.6694  -4.6501  -4.5521  -4.4675   4.4931   6.9553   6.9731   7.5191
     8.8394   8.8577   9.2847   9.3152   9.6374   9.6744  12.7175  13.4555
    13.4808  15.0097

          k =-0.0500 0.2500 0.0500 (  5005 PWs)   bands (ev):

   -45.8469 -22.1995 -22.1038 -22.1038  -6.9174  -6.0163  -5.9168  -4.6846
    -4.6790  -4.6491  -4.5390  -4.5172   4.1046   6.9929   7.0213   7.3437
     8.6024   8.6197   9.2368   9.3817   9.6777   9.8491  12.7193  13.8557
    13.8899  15.0139

          k =-0.0500 0.3500 0.0500 (  5011 PWs)   bands (ev):

   -45.8465 -22.2182 -22.1031 -22.1031  -6.7688  -5.9682  -5.8594  -4.6985
    -4.6880  -4.6481  -4.5700  -4.5265   3.7947   6.7092   7.0866   7.2300
     8.4057   8.4171   9.1754   9.5287   9.7218  10.3071  12.7201  14.2413
    14.2826  14.5903

          k =-0.0500 0.4500 0.0500 (  5005 PWs)   bands (ev):

   -45.8463 -22.2298 -22.1026 -22.1026  -6.6744  -5.9365  -5.8232  -4.7073
    -4.6933  -4.6475  -4.6043  -4.5191   3.6309   6.3965   7.1263   7.2731
     8.2930   8.2974   9.1354   9.5932   9.7509  10.7801  12.7186  13.8616
    14.4737  14.5231

          k = 0.1500 0.0500 0.1500 (  4997 PWs)   bands (ev):

   -45.8470 -22.1681 -22.1160 -22.1157  -6.9742  -6.0371  -5.9725  -4.6895
    -4.6720  -4.6574  -4.5561  -4.4375   4.2410   6.9246   7.1706   7.5469
     8.6495   8.6515   9.1889   9.3287   9.4850   9.8929  13.2090  13.2652
    13.3341  15.5133

          k =-0.0500 0.2500 0.1500 (  5011 PWs)   bands (ev):

   -45.8466 -22.1990 -22.1151 -22.1033  -6.8378  -6.0064  -5.8951  -4.6898
    -4.6767  -4.6570  -4.5453  -4.4888   3.9516   6.8547   7.0783   7.4888
     8.3168   8.5647   9.0084   9.4056   9.4864  10.0420  13.0253  13.8495
    13.9112  15.3419

          k = 0.2500 0.0500 0.1500 (  5011 PWs)   bands (ev):

   -45.8466 -22.1674 -22.1342 -22.1151  -6.8307  -5.9964  -5.9509  -4.7109
    -4.6720  -4.6551  -4.5508  -4.4424   3.9200   6.8988   7.2201   7.4646
     8.3040   8.5635   9.0724   9.3384   9.5075  10.0433  13.2683  13.5463
    13.6723  15.5356

          k =-0.0500 0.3500 0.1500 (  5008 PWs)   bands (ev):

   -45.8463 -22.2177 -22.1144 -22.1026  -6.6990  -5.9679  -5.8338  -4.7016
    -4.6779  -4.6564  -4.5411  -4.5174   3.6873   6.6036   7.0739   7.3482
     8.1504   8.4061   9.0192   9.4040   9.5251  10.3904  13.0170  14.2224
    14.2945  14.8083

          k = 0.3500 0.0500 0.1500 (  5008 PWs)   bands (ev):

   -45.8463 -22.1667 -22.1523 -22.1144  -6.6804  -5.9569  -5.9300  -4.7272
    -4.6668  -4.6496  -4.5511  -4.4555   3.6565   6.6324   7.2310   7.5526
     8.0148   8.5139   8.8376   9.3856   9.5720  10.3273  13.2720  13.9346
    14.0399  15.0634

          k =-0.0500 0.4500 0.1500 (  4997 PWs)   bands (ev):

   -45.8460 -22.2292 -22.1139 -22.1022  -6.6135  -5.9419  -5.7934  -4.7093
    -4.6784  -4.6560  -4.5473  -4.5269   3.5424   6.3312   7.0550   7.3740
     8.0600   8.3053   9.0713   9.3859   9.5525  10.6607  13.0053  14.2867
    14.4598  14.5303

          k = 0.4500 0.0500 0.1500 (  4997 PWs)   bands (ev):

   -45.8460 -22.1662 -22.1636 -22.1140  -6.5833  -5.9315  -5.9195  -4.7343
    -4.6630  -4.6431  -4.5515  -4.4705   3.5170   6.3630   7.3294   7.6140
     7.9642   8.2242   8.8418   9.3869   9.6066  10.5853  13.2585  14.1884
    14.2864  14.5631

          k = 0.2500 0.0500 0.2500 (  4997 PWs)   bands (ev):

   -45.8463 -22.1667 -22.1335 -22.1332  -6.7004  -5.9532  -5.9443  -4.7156
    -4.6755  -4.6399  -4.5269  -4.4488   3.6676   6.8623   7.1366   7.4458
     8.1255   8.1997   9.0094   9.2579   9.6849  10.1342  13.5010  13.6045
    13.9172  15.6409

          k =-0.0500 0.3500 0.2500 (  5000 PWs)   bands (ev):

   -45.8459 -22.2168 -22.1325 -22.1019  -6.5973  -5.9507  -5.7890  -4.6981
    -4.6739  -4.6621  -4.5543  -4.4507   3.5219   6.4863   7.1220   7.2840
     7.9985   8.1504   8.6698   9.2060   9.7174  10.3211  13.4516  14.2687
    14.3734  15.1529

          k = 0.3500 0.0500 0.2500 (  5000 PWs)   bands (ev):

   -45.8459 -22.1660 -22.1515 -22.1326  -6.5723  -5.9320  -5.9085  -4.7191
    -4.6687  -4.6190  -4.5115  -4.4636   3.4425   6.6394   7.0280   7.4560
     7.9339   8.2246   8.7285   9.2991   9.7908  10.2095  13.5376  13.9468
    14.1807  15.3435

          k =-0.0500 0.4500 0.2500 (  5006 PWs)   bands (ev):

   -45.8456 -22.2282 -22.1320 -22.1015  -6.5345  -5.9229  -5.7406  -4.7045
    -4.6698  -4.6603  -4.5576  -4.4471   3.4038   6.2378   7.0524   7.2927
     7.9187   8.1373   8.6178   9.2320   9.7203  10.3945  13.4404  14.4995
    14.5642  14.9592

          k = 0.4500 0.0500 0.2500 (  5006 PWs)   bands (ev):

   -45.8456 -22.1655 -22.1627 -22.1321  -6.4963  -5.9192  -5.8801  -4.7199
    -4.6621  -4.5974  -4.5063  -4.4808   3.3164   6.3737   7.1044   7.3436
     7.9870   8.2530   8.5052   9.3617   9.7797  10.2678  13.5315  14.2064
    14.3621  15.1358

          k = 0.3500 0.0500 0.3500 (  5000 PWs)   bands (ev):

   -45.8455 -22.1653 -22.1507 -22.1506  -6.4821  -5.9023  -5.8666  -4.7129
    -4.6576  -4.5906  -4.4813  -4.4717   3.2400   6.5794   6.7305   7.4744
     7.7950   8.1443   8.6775   9.1046   9.9703  10.0844  13.8767  13.9919
    14.3369  15.5583

          k =-0.0500 0.4500 0.3500 (  4997 PWs)   bands (ev):

   -45.8453 -22.2272 -22.1501 -22.1008  -6.4873  -5.8561  -5.6891  -4.7018
    -4.6791  -4.6495  -4.5734  -4.3649   3.2741   6.1544   6.8106   7.3205
     7.7054   8.0291   8.5154   8.9716   9.7653  10.2859  13.8391  14.5151
    14.7108  15.5521

          k = 0.4500 0.0500 0.3500 (  4997 PWs)   bands (ev):

   -45.8453 -22.1648 -22.1618 -22.1501  -6.4392  -5.8704  -5.8381  -4.7097
    -4.6443  -4.5667  -4.5024  -4.4491   3.1210   6.3388   6.7445   7.4086
     7.7439   8.2983   8.4957   9.0673   9.7742  10.2321  13.9268  14.2144
    14.4483  15.6143

          k = 0.4500 0.0500 0.4500 (  4995 PWs)   bands (ev):

   -45.8450 -22.1643 -22.1613 -22.1612  -6.4202  -5.8202  -5.8120  -4.7048
    -4.6191  -4.5476  -4.5286  -4.4137   3.0032   6.2183   6.6312   7.4975
     7.5417   8.4139   8.5085   8.8666   9.5166  10.3998  14.2052  14.2283
    14.5057  15.6375

          k =-0.1500 0.2500 0.1500 (  5000 PWs)   bands (ev):

   -45.8464 -22.1985 -22.1148 -22.1146  -6.7574  -5.9963  -5.8864  -4.6962
    -4.6777  -4.6526  -4.5351  -4.4668   3.8560   6.8355   6.8691   7.5312
     8.2392   8.2515   8.9988   9.4553   9.5989   9.9914  13.2166  13.8248
    13.9346  15.5799

          k =-0.1500 0.3500 0.1500 (  5003 PWs)   bands (ev):

   -45.8460 -22.2172 -22.1140 -22.1138  -6.6254  -5.9703  -5.8239  -4.7074
    -4.6678  -4.6442  -4.5285  -4.4894   3.6381   6.6085   6.7612   7.3386
     8.1262   8.2157   8.8507   9.4868   9.6244  10.2705  13.1672  14.1878
    14.2900  15.0081

          k =-0.1500 0.4500 0.1500 (  4986 PWs)   bands (ev):

   -45.8458 -22.2286 -22.1135 -22.1134  -6.5459  -5.9539  -5.7799  -4.7125
    -4.6633  -4.6329  -4.5284  -4.5055   3.5129   6.3322   6.7094   7.3371
     8.0727   8.2244   8.7688   9.4969   9.6363  10.4305  13.1243  14.4201
    14.5078  14.7259

          k = 0.2500 0.1500 0.2500 (  4990 PWs)   bands (ev):

   -45.8460 -22.1783 -22.1331 -22.1327  -6.6204  -5.9574  -5.9261  -4.7053
    -4.6806  -4.6285  -4.5113  -4.4336   3.6620   6.7474   6.8997   7.2359
     7.9026   8.1496   9.2213   9.3516   9.7169   9.9680  13.5855  13.7227
    13.9217  15.5055

          k =-0.1500 0.3500 0.2500 (  5000 PWs)   bands (ev):

   -45.8456 -22.2163 -22.1321 -22.1132  -6.5168  -5.9618  -5.8033  -4.7005
    -4.6727  -4.6205  -4.5212  -4.4318   3.5482   6.4668   6.7174   7.0888
     7.6765   8.0867   8.9603   9.4251   9.7638  10.0978  13.4606  14.2045
    14.3161  15.3117

          k = 0.3500 0.1500 0.2500 (  5000 PWs)   bands (ev):

   -45.8456 -22.1775 -22.1510 -22.1321  -6.4918  -5.9373  -5.9105  -4.7054
    -4.6699  -4.5992  -4.4904  -4.4391   3.4872   6.5936   6.7997   7.0027
     7.6686   8.1957   9.0642   9.4059   9.8091   9.9806  13.5901  13.9593
    14.1812  15.4376

          k =-0.1500 0.4500 0.2500 (  5002 PWs)   bands (ev):

   -45.8454 -22.2277 -22.1316 -22.1127  -6.4556  -5.9495  -5.7530  -4.7025
    -4.6663  -4.6004  -4.5280  -4.4285   3.4550   6.2468   6.6009   7.0344
     7.6601   8.0872   8.8422   9.4678   9.7618  10.1076  13.4455  14.4374
    14.5029  15.3142

          k = 0.4500 0.1500 0.2500 (  5002 PWs)   bands (ev):

   -45.8454 -22.1769 -22.1623 -22.1316  -6.4160  -5.9365  -5.8836  -4.7039
    -4.6614  -4.5694  -4.4761  -4.4581   3.3838   6.3674   6.7355   6.9644
     7.5999   8.2939   8.8813   9.4641   9.7728   9.9991  13.5765  14.1591
    14.3858  15.4716

          k = 0.3500 0.1500 0.3500 (  5004 PWs)   bands (ev):

   -45.8453 -22.1767 -22.1503 -22.1501  -6.3932  -5.9169  -5.8931  -4.6967
    -4.6536  -4.5572  -4.4521  -4.4425   3.3424   6.5594   6.6057   6.8164
     7.3243   8.1689   9.1684   9.2715   9.6591  10.0887  13.8236  14.0177
    14.3191  15.7141

          k =-0.1500 0.4500 0.3500 (  4997 PWs)   bands (ev):

   -45.8450 -22.2267 -22.1496 -22.1120  -6.4019  -5.8969  -5.7271  -4.6947
    -4.6540  -4.5886  -4.5255  -4.3492   3.3885   6.1327   6.6563   6.7474
     7.0781   8.1285   8.9565   9.2758   9.4866  10.2259  13.8305  14.4141
    14.6085  15.8497

          k = 0.4500 0.1500 0.3500 (  4997 PWs)   bands (ev):

   -45.8450 -22.1762 -22.1614 -22.1497  -6.3466  -5.9042  -5.8655  -4.6922
    -4.6383  -4.5179  -4.4603  -4.4290   3.2498   6.3302   6.6364   6.7420
     7.1884   8.2258   9.0280   9.3178   9.4326  10.2195  13.9078  14.1681
    14.4533  15.9694

          k = 0.4500 0.1500 0.4500 (  5002 PWs)   bands (ev):

   -45.8448 -22.1756 -22.1609 -22.1609  -6.3246  -5.8609  -5.8538  -4.6867
    -4.6147  -4.4861  -4.4685  -4.3995   3.1599   6.2077   6.5950   6.8009
     6.8951   8.2454   8.9462   9.2154   9.2427  10.3942  14.1572  14.1938
    14.5244  16.2407

          k =-0.2500 0.3500 0.2500 (  4998 PWs)   bands (ev):

   -45.8453 -22.2154 -22.1314 -22.1312  -6.3935  -5.9717  -5.8213  -4.6854
    -4.6668  -4.5786  -4.4719  -4.3953   3.5761   6.3167   6.4470   6.8060
     7.4602   7.6118   9.1806   9.6762   9.7766   9.9188  13.5712  14.2342
    14.2570  15.5875

          k =-0.2500 0.4500 0.2500 (  5001 PWs)   bands (ev):

   -45.8450 -22.2268 -22.1309 -22.1308  -6.3402  -5.9764  -5.7672  -4.6841
    -4.6562  -4.5506  -4.4689  -4.3860   3.5301   6.1856   6.2798   6.6512
     7.4369   7.5813   9.0112   9.7059   9.7312   9.9734  13.6173  14.3948
    14.4668  15.8031

          k = 0.3500 0.2500 0.3500 (  4990 PWs)   bands (ev):

   -45.8449 -22.1952 -22.1495 -22.1494  -6.2598  -5.9334  -5.9241  -4.6690
    -4.6479  -4.5124  -4.4117  -4.3811   3.5186   6.2498   6.2900   6.5573
     7.1010   7.5309   8.9066   9.7529   9.7702  10.1000  13.8228  14.1377
    14.3438  15.9860

          k =-0.2500 0.4500 0.3500 (  4985 PWs)   bands (ev):

   -45.8447 -22.2259 -22.1489 -22.1301  -6.2640  -5.9559  -5.7797  -4.6682
    -4.6348  -4.5183  -4.4252  -4.3211   3.5918   6.0022   6.1916   6.3884
     6.8908   7.5242   8.5991   9.7242   9.7960  10.2101  13.9228  14.3693
    14.5382  16.2585

          k = 0.4500 0.2500 0.3500 (  4985 PWs)   bands (ev):

   -45.8447 -22.1947 -22.1606 -22.1489  -6.2041  -5.9440  -5.9057  -4.6635
    -4.6313  -4.4611  -4.3975  -4.3711   3.4857   6.1456   6.2877   6.3268
     6.9510   7.5454   8.5560   9.7776   9.7938  10.2174  13.9892  14.1866
    14.4809  16.3575

          k = 0.4500 0.2500 0.4500 (  4988 PWs)   bands (ev):

   -45.8444 -22.1942 -22.1601 -22.1601  -6.1683  -5.9192  -5.9147  -4.6571
    -4.6111  -4.4028  -4.3736  -4.3627   3.4626   6.1422   6.2020   6.2285
     6.6892   7.5113   8.1331   9.8163   9.8191  10.3854  14.1930  14.2437
    14.5457  16.7003

          k =-0.3500 0.4500 0.3500 (  4971 PWs)   bands (ev):

   -45.8443 -22.2250 -22.1482 -22.1481  -6.1399  -5.9930  -5.8260  -4.6397
    -4.6232  -4.4473  -4.3335  -4.2852   3.8196   5.7713   5.8443   6.2167
     6.8009   7.0261   7.8747  10.0777  10.0989  10.2484  14.1409  14.4270
    14.5287  16.6957

          k = 0.4500 0.3500 0.4500 (  4966 PWs)   bands (ev):

   -45.8441 -22.2126 -22.1593 -22.1593  -6.0256  -5.9694  -5.9544  -4.6275
    -4.6085  -4.3577  -4.2874  -4.2831   3.8701   5.7407   5.7798   6.1203
     6.6806   6.9002   7.2661  10.1974  10.2055  10.3768  14.3559  14.4105
    14.5596  17.1370

     the Fermi energy is    10.6498 ev

!    total energy              =    -364.95997203 Ry
     Harris-Foulkes estimate   =    -364.95997203 Ry
     estimated scf accuracy    <          7.5E-11 Ry

     The total energy is the sum of the following terms:

     one-electron contribution =     -82.58111925 Ry
     hartree contribution      =      71.12160788 Ry
     xc contribution           =     -85.90459044 Ry
     ewald contribution        =    -267.60196412 Ry
     smearing contrib. (-TS)   =       0.00609391 Ry

     convergence has been achieved in   9 iterations

     Forces acting on atoms (cartesian axes, Ry/au):

     atom    1 type  1   force =     0.00000000   -0.00060016    0.00000000
     atom    2 type  2   force =     0.00000000    0.00075230    0.00000000
     atom    3 type  3   force =     0.00000000   -0.00003486    0.00000000
     atom    4 type  3   force =     0.00000000   -0.00008242    0.00000000
     atom    5 type  3   force =     0.00000000   -0.00003486    0.00000000

     Total force =     0.000758     Total SCF correction =     0.000041


     Computing stress (Cartesian axis) and pressure

          total   stress  (Ry/bohr**3)                   (kbar)     P=   50.18
   0.00024831   0.00000000   0.00000000         36.53      0.00      0.00
   0.00000000   0.00052663   0.00000000          0.00     77.47      0.00
   0.00000000   0.00000000   0.00024831          0.00      0.00     36.53


     bfgs converged in  27 scf cycles and  26 bfgs steps
     (criteria: energy <  1.0E-04 Ry, force <  1.0E-03 Ry/Bohr)

     End of BFGS Geometry Optimization

     Final energy   =    -364.9599720258 Ry
Begin final coordinates

ATOMIC_POSITIONS (crystal)
Pb       0.000000000   0.000000000   0.000000000    0   0   0
Ti       0.500000000   0.526216578   0.500000000
O        0.500000000   0.579055252   0.000000000
O        0.500000000   0.068564653   0.500000000
O        0.000000000   0.579055252   0.500000000
End final coordinates



     Writing output data file PbTiO3.save/

     init_run     :     11.47s CPU     15.31s WALL (       1 calls)
     electrons    :   6846.21s CPU   9492.02s WALL (      27 calls)
     update_pot   :     10.00s CPU     10.49s WALL (      26 calls)
     forces       :    143.19s CPU    162.14s WALL (      27 calls)
     stress       :    364.70s CPU    396.33s WALL (      27 calls)

     Called by init_run:
     wfcinit      :      8.58s CPU     12.10s WALL (       1 calls)
     potinit      :      0.27s CPU      0.29s WALL (       1 calls)
     hinit0       :      1.99s CPU      1.99s WALL (       1 calls)

     Called by electrons:
     c_bands      :   5888.25s CPU   7992.31s WALL (     247 calls)
     sum_band     :    760.95s CPU   1234.46s WALL (     247 calls)
     v_of_rho     :     54.31s CPU     59.01s WALL (     268 calls)
     newd         :    156.49s CPU    225.40s WALL (     268 calls)
     mix_rho      :      4.70s CPU      5.52s WALL (     247 calls)

     Called by c_bands:
     init_us_2    :     96.77s CPU    126.59s WALL (   41175 calls)
     cegterg      :   5599.61s CPU   7679.08s WALL (   18525 calls)

     Called by sum_band:
     sum_band:bec :      1.16s CPU      1.63s WALL (   18525 calls)
     addusdens    :    199.24s CPU    264.00s WALL (     247 calls)

     Called by *egterg:
     h_psi        :   3025.65s CPU   4836.53s WALL (   81054 calls)
     s_psi        :    598.59s CPU    660.04s WALL (   81054 calls)
     g_psi        :     52.45s CPU     69.09s WALL (   62454 calls)
     cdiaghg      :     99.68s CPU    137.09s WALL (   78579 calls)

     Called by h_psi:
     h_psi:pot    :   3013.79s CPU   4816.92s WALL (   81054 calls)
     h_psi:calbec :    590.76s CPU    658.91s WALL (   81054 calls)
     vloc_psi     :   1811.25s CPU   3495.01s WALL (   81054 calls)
     add_vuspsi   :    606.08s CPU    656.03s WALL (   81054 calls)

     General routines
     calbec       :    930.42s CPU   1028.83s WALL (  109704 calls)
     fft          :     24.87s CPU     27.78s WALL (    4137 calls)
     ffts         :      0.63s CPU      0.95s WALL (     515 calls)
     fftw         :   1866.30s CPU   3650.94s WALL ( 3166182 calls)
     interpolate  :      2.18s CPU      2.76s WALL (     268 calls)

     Parallel routines

     PWSCF        :      2h 3m CPU      2h48m WALL


   This run was terminated on:  16:45:36  14May2020            

=------------------------------------------------------------------------------=
   JOB DONE.
=------------------------------------------------------------------------------=
