
     Program PWSCF v.6.4.1 starts on 13May2020 at 11:27:58 

     This program is part of the open-source Quantum ESPRESSO suite
     for quantum simulation of materials; please cite
         "P. Giannozzi et al., J. Phys.:Condens. Matter 21 395502 (2009);
         "P. Giannozzi et al., J. Phys.:Condens. Matter 29 465901 (2017);
          URL http://www.quantum-espresso.org", 
     in publications or presentations arising from this work. More details at
     http://www.quantum-espresso.org/quote

     Parallel version (MPI & OpenMP), running on       1 processor cores
     Number of MPI processes:                 1
     Threads/MPI process:                     1

     MPI processes distributed on     1 nodes
     Reading input from PTO_7.49_10_0.51.pw.in
Warning: card  &CELL ignored
Warning: card   CELL_DYNAMICS = 'BFGS', ignored
Warning: card  / ignored

     Current dimensions of program PWSCF are:
     Max number of different atomic species (ntypx) = 10
     Max number of k-points (npk) =  40000
     Max angular momentum in pseudopotentials (lmaxx) =  3
     Message from routine read_upf::
     Pseudo file Pb.pbe-dn-rrkjus_psl.0.2.2.UPF has been fixed on the fly.
To avoid this message in the future, permanently fix 
 your pseudo files following these instructions: 
https://gitlab.com/QEF/q-e/blob/master/upftools/how_to_fix_upf.md
     Message from routine read_upf::
     Pseudo file O.pbe-n-rrkjus_psl.0.1.UPF has been fixed on the fly.
To avoid this message in the future, permanently fix 
 your pseudo files following these instructions: 
https://gitlab.com/QEF/q-e/blob/master/upftools/how_to_fix_upf.md
               file Pb.pbe-dn-rrkjus_psl.0.2.2.UPF: wavefunction(s)  6S renormalized

     Subspace diagonalization in iterative solution of the eigenvalue problem:
     a serial algorithm will be used

 
     G-vector sticks info
     --------------------
     sticks:   dense  smooth     PW     G-vecs:    dense   smooth      PW
     Sum        3569    1433    421               160467    40651    6235
 


     bravais-lattice index     =            1
     lattice parameter (alat)  =       7.4900  a.u.
     unit-cell volume          =     420.1897 (a.u.)^3
     number of atoms/cell      =            5
     number of atomic types    =            3
     number of electrons       =        44.00
     number of Kohn-Sham states=           26
     kinetic-energy cutoff     =      80.0000  Ry
     charge density cutoff     =     800.0000  Ry
     convergence threshold     =      1.0E-08
     mixing beta               =       0.7000
     number of iterations used =            8  plain     mixing
     Exchange-correlation      = PBE ( 1  4  3  4 0 0)
     nstep                     =           50


     celldm(1)=   7.490000  celldm(2)=   0.000000  celldm(3)=   0.000000
     celldm(4)=   0.000000  celldm(5)=   0.000000  celldm(6)=   0.000000

     crystal axes: (cart. coord. in units of alat)
               a(1) = (   1.000000   0.000000   0.000000 )  
               a(2) = (   0.000000   1.000000   0.000000 )  
               a(3) = (   0.000000   0.000000   1.000000 )  

     reciprocal axes: (cart. coord. in units 2 pi/alat)
               b(1) = (  1.000000  0.000000  0.000000 )  
               b(2) = (  0.000000  1.000000  0.000000 )  
               b(3) = (  0.000000  0.000000  1.000000 )  


     PseudoPot. # 1 for Pb read from file:
     ./Pb.pbe-dn-rrkjus_psl.0.2.2.UPF
     MD5 check sum: 7afc420059c37d6888fc09c0f121e83f
     Pseudo is Ultrasoft + core correction, Zval = 14.0
     Generated using "atomic" code by A. Dal Corso v.5.0.2 svn rev. 9415
     Using radial grid of 1281 points,  6 beta functions with: 
                l(1) =   0
                l(2) =   0
                l(3) =   1
                l(4) =   1
                l(5) =   2
                l(6) =   2
     Q(r) pseudized with 0 coefficients 


     PseudoPot. # 2 for Ti read from file:
     ./Ti.pbe-sp-van_ak.UPF
     MD5 check sum: 8e4df49b7f0d34bbd5052bf3f5ea0213
     Pseudo is Ultrasoft, Zval = 12.0
     Generated by new atomic code, or converted to UPF format
     Using radial grid of  851 points,  6 beta functions with: 
                l(1) =   0
                l(2) =   0
                l(3) =   1
                l(4) =   1
                l(5) =   2
                l(6) =   2
     Q(r) pseudized with  8 coefficients,  rinner =    1.000   1.000   1.000
                                                       1.000   1.000

     PseudoPot. # 3 for O  read from file:
     ./O.pbe-n-rrkjus_psl.0.1.UPF
     MD5 check sum: e057bbcf3229fb5d8c36c0c92f9568b4
     Pseudo is Ultrasoft + core correction, Zval =  6.0
     Generated using "atomic" code by A. Dal Corso v.5.0.2 svn rev. 9415
     Using radial grid of 1095 points,  4 beta functions with: 
                l(1) =   0
                l(2) =   0
                l(3) =   1
                l(4) =   1
     Q(r) pseudized with 0 coefficients 


     atomic species   valence    mass     pseudopotential
        Pb            14.00   207.20000     Pb( 1.00)
        Ti            12.00    47.87000     Ti( 1.00)
        O              6.00    16.00000     O ( 1.00)

      8 Sym. Ops. (no inversion) found



   Cartesian axes

     site n.     atom                  positions (alat units)
         1           Pb  tau(   1) = (   0.0000000   0.0000000   0.0000000  )
         2           Ti  tau(   2) = (   0.5000000   0.5100000   0.5000000  )
         3           O   tau(   3) = (   0.5000000   0.5000000   0.0000000  )
         4           O   tau(   4) = (   0.5000000   0.0000000   0.5000000  )
         5           O   tau(   5) = (   0.0000000   0.5000000   0.5000000  )

     number of k points=    75  Marzari-Vanderbilt smearing, width (Ry)=  0.0250
                       cart. coord. in units 2pi/alat
        k(    1) = (   0.0500000   0.0500000   0.0500000), wk =   0.0160000
        k(    2) = (   0.0500000   0.0500000   0.1500000), wk =   0.0320000
        k(    3) = (   0.0500000   0.0500000   0.2500000), wk =   0.0320000
        k(    4) = (   0.0500000   0.0500000   0.3500000), wk =   0.0320000
        k(    5) = (   0.0500000   0.0500000   0.4500000), wk =   0.0320000
        k(    6) = (   0.0500000   0.1500000   0.1500000), wk =   0.0320000
        k(    7) = (   0.0500000   0.1500000   0.2500000), wk =   0.0320000
        k(    8) = (   0.0500000   0.1500000   0.3500000), wk =   0.0320000
        k(    9) = (   0.0500000   0.1500000   0.4500000), wk =   0.0320000
        k(   10) = (   0.0500000   0.2500000   0.2500000), wk =   0.0320000
        k(   11) = (   0.0500000   0.2500000   0.3500000), wk =   0.0320000
        k(   12) = (   0.0500000   0.2500000   0.4500000), wk =   0.0320000
        k(   13) = (   0.0500000   0.3500000   0.3500000), wk =   0.0320000
        k(   14) = (   0.0500000   0.3500000   0.4500000), wk =   0.0320000
        k(   15) = (   0.0500000   0.4500000   0.4500000), wk =   0.0320000
        k(   16) = (   0.1500000   0.1500000   0.1500000), wk =   0.0160000
        k(   17) = (   0.1500000   0.1500000   0.2500000), wk =   0.0320000
        k(   18) = (   0.1500000   0.1500000   0.3500000), wk =   0.0320000
        k(   19) = (   0.1500000   0.1500000   0.4500000), wk =   0.0320000
        k(   20) = (   0.1500000   0.2500000   0.2500000), wk =   0.0320000
        k(   21) = (   0.1500000   0.2500000   0.3500000), wk =   0.0320000
        k(   22) = (   0.1500000   0.2500000   0.4500000), wk =   0.0320000
        k(   23) = (   0.1500000   0.3500000   0.3500000), wk =   0.0320000
        k(   24) = (   0.1500000   0.3500000   0.4500000), wk =   0.0320000
        k(   25) = (   0.1500000   0.4500000   0.4500000), wk =   0.0320000
        k(   26) = (   0.2500000   0.2500000   0.2500000), wk =   0.0160000
        k(   27) = (   0.2500000   0.2500000   0.3500000), wk =   0.0320000
        k(   28) = (   0.2500000   0.2500000   0.4500000), wk =   0.0320000
        k(   29) = (   0.2500000   0.3500000   0.3500000), wk =   0.0320000
        k(   30) = (   0.2500000   0.3500000   0.4500000), wk =   0.0320000
        k(   31) = (   0.2500000   0.4500000   0.4500000), wk =   0.0320000
        k(   32) = (   0.3500000   0.3500000   0.3500000), wk =   0.0160000
        k(   33) = (   0.3500000   0.3500000   0.4500000), wk =   0.0320000
        k(   34) = (   0.3500000   0.4500000   0.4500000), wk =   0.0320000
        k(   35) = (   0.4500000   0.4500000   0.4500000), wk =   0.0160000
        k(   36) = (  -0.0500000   0.1500000   0.0500000), wk =   0.0160000
        k(   37) = (  -0.0500000   0.2500000   0.0500000), wk =   0.0160000
        k(   38) = (  -0.0500000   0.3500000   0.0500000), wk =   0.0160000
        k(   39) = (  -0.0500000   0.4500000   0.0500000), wk =   0.0160000
        k(   40) = (   0.1500000   0.0500000   0.1500000), wk =   0.0160000
        k(   41) = (  -0.0500000   0.2500000   0.1500000), wk =   0.0320000
        k(   42) = (   0.2500000   0.0500000   0.1500000), wk =   0.0320000
        k(   43) = (  -0.0500000   0.3500000   0.1500000), wk =   0.0320000
        k(   44) = (   0.3500000   0.0500000   0.1500000), wk =   0.0320000
        k(   45) = (  -0.0500000   0.4500000   0.1500000), wk =   0.0320000
        k(   46) = (   0.4500000   0.0500000   0.1500000), wk =   0.0320000
        k(   47) = (   0.2500000   0.0500000   0.2500000), wk =   0.0160000
        k(   48) = (  -0.0500000   0.3500000   0.2500000), wk =   0.0320000
        k(   49) = (   0.3500000   0.0500000   0.2500000), wk =   0.0320000
        k(   50) = (  -0.0500000   0.4500000   0.2500000), wk =   0.0320000
        k(   51) = (   0.4500000   0.0500000   0.2500000), wk =   0.0320000
        k(   52) = (   0.3500000   0.0500000   0.3500000), wk =   0.0160000
        k(   53) = (  -0.0500000   0.4500000   0.3500000), wk =   0.0320000
        k(   54) = (   0.4500000   0.0500000   0.3500000), wk =   0.0320000
        k(   55) = (   0.4500000   0.0500000   0.4500000), wk =   0.0160000
        k(   56) = (  -0.1500000   0.2500000   0.1500000), wk =   0.0160000
        k(   57) = (  -0.1500000   0.3500000   0.1500000), wk =   0.0160000
        k(   58) = (  -0.1500000   0.4500000   0.1500000), wk =   0.0160000
        k(   59) = (   0.2500000   0.1500000   0.2500000), wk =   0.0160000
        k(   60) = (  -0.1500000   0.3500000   0.2500000), wk =   0.0320000
        k(   61) = (   0.3500000   0.1500000   0.2500000), wk =   0.0320000
        k(   62) = (  -0.1500000   0.4500000   0.2500000), wk =   0.0320000
        k(   63) = (   0.4500000   0.1500000   0.2500000), wk =   0.0320000
        k(   64) = (   0.3500000   0.1500000   0.3500000), wk =   0.0160000
        k(   65) = (  -0.1500000   0.4500000   0.3500000), wk =   0.0320000
        k(   66) = (   0.4500000   0.1500000   0.3500000), wk =   0.0320000
        k(   67) = (   0.4500000   0.1500000   0.4500000), wk =   0.0160000
        k(   68) = (  -0.2500000   0.3500000   0.2500000), wk =   0.0160000
        k(   69) = (  -0.2500000   0.4500000   0.2500000), wk =   0.0160000
        k(   70) = (   0.3500000   0.2500000   0.3500000), wk =   0.0160000
        k(   71) = (  -0.2500000   0.4500000   0.3500000), wk =   0.0320000
        k(   72) = (   0.4500000   0.2500000   0.3500000), wk =   0.0320000
        k(   73) = (   0.4500000   0.2500000   0.4500000), wk =   0.0160000
        k(   74) = (  -0.3500000   0.4500000   0.3500000), wk =   0.0160000
        k(   75) = (   0.4500000   0.3500000   0.4500000), wk =   0.0160000

     Dense  grid:   160467 G-vectors     FFT dimensions: (  72,  72,  72)

     Smooth grid:    40651 G-vectors     FFT dimensions: (  45,  45,  45)

     Estimated max dynamical RAM per process >     759.22 MB

     Check: negative core charge=   -0.000006

     Initial potential from superposition of free atoms

     starting charge   42.99760, renormalised to   44.00000
     Starting wfcs are   31 randomized atomic wfcs

     total cpu time spent up to now is       11.5 secs

     Self-consistent Calculation

     iteration #  1     ecut=    80.00 Ry     beta= 0.70
     Davidson diagonalization with overlap
     ethr =  1.00E-02,  avg # of iterations =  2.0

     total cpu time spent up to now is       31.3 secs

     total energy              =    -364.38122960 Ry
     Harris-Foulkes estimate   =    -365.28877268 Ry
     estimated scf accuracy    <       1.13703462 Ry

     iteration #  2     ecut=    80.00 Ry     beta= 0.70
     Davidson diagonalization with overlap
     ethr =  2.58E-03,  avg # of iterations =  4.0

     total cpu time spent up to now is       58.5 secs

     total energy              =    -363.03246371 Ry
     Harris-Foulkes estimate   =    -365.90537986 Ry
     estimated scf accuracy    <      11.75922949 Ry

     iteration #  3     ecut=    80.00 Ry     beta= 0.70
     Davidson diagonalization with overlap
     ethr =  2.58E-03,  avg # of iterations =  5.2

     total cpu time spent up to now is       86.6 secs

     total energy              =    -364.93664770 Ry
     Harris-Foulkes estimate   =    -365.11347751 Ry
     estimated scf accuracy    <       0.47706349 Ry

     iteration #  4     ecut=    80.00 Ry     beta= 0.70
     Davidson diagonalization with overlap
     ethr =  1.08E-03,  avg # of iterations =  3.0

     total cpu time spent up to now is      106.3 secs

     total energy              =    -364.92345561 Ry
     Harris-Foulkes estimate   =    -364.97401264 Ry
     estimated scf accuracy    <       0.18712485 Ry

     iteration #  5     ecut=    80.00 Ry     beta= 0.70
     Davidson diagonalization with overlap
     ethr =  4.25E-04,  avg # of iterations =  4.4

     total cpu time spent up to now is      129.7 secs

     total energy              =    -364.95653484 Ry
     Harris-Foulkes estimate   =    -364.95731180 Ry
     estimated scf accuracy    <       0.00292661 Ry

     iteration #  6     ecut=    80.00 Ry     beta= 0.70
     Davidson diagonalization with overlap
     ethr =  6.65E-06,  avg # of iterations =  4.6

     total cpu time spent up to now is      155.4 secs

     total energy              =    -364.95743401 Ry
     Harris-Foulkes estimate   =    -364.95754351 Ry
     estimated scf accuracy    <       0.00028972 Ry

     iteration #  7     ecut=    80.00 Ry     beta= 0.70
     Davidson diagonalization with overlap
     ethr =  6.58E-07,  avg # of iterations =  3.4

     total cpu time spent up to now is      180.1 secs

     total energy              =    -364.95742477 Ry
     Harris-Foulkes estimate   =    -364.95756874 Ry
     estimated scf accuracy    <       0.00042811 Ry

     iteration #  8     ecut=    80.00 Ry     beta= 0.70
     Davidson diagonalization with overlap
     ethr =  6.58E-07,  avg # of iterations =  3.0

     total cpu time spent up to now is      201.7 secs

     total energy              =    -364.95750308 Ry
     Harris-Foulkes estimate   =    -364.95753088 Ry
     estimated scf accuracy    <       0.00009973 Ry

     iteration #  9     ecut=    80.00 Ry     beta= 0.70
     Davidson diagonalization with overlap
     ethr =  2.27E-07,  avg # of iterations =  2.1

     total cpu time spent up to now is      220.9 secs

     total energy              =    -364.95749907 Ry
     Harris-Foulkes estimate   =    -364.95751166 Ry
     estimated scf accuracy    <       0.00003085 Ry

     iteration # 10     ecut=    80.00 Ry     beta= 0.70
     Davidson diagonalization with overlap
     ethr =  7.01E-08,  avg # of iterations =  2.4

     total cpu time spent up to now is      241.1 secs

     total energy              =    -364.95750266 Ry
     Harris-Foulkes estimate   =    -364.95750330 Ry
     estimated scf accuracy    <       0.00000182 Ry

     iteration # 11     ecut=    80.00 Ry     beta= 0.70
     Davidson diagonalization with overlap
     ethr =  4.13E-09,  avg # of iterations =  3.3

     total cpu time spent up to now is      265.7 secs

     total energy              =    -364.95750318 Ry
     Harris-Foulkes estimate   =    -364.95750322 Ry
     estimated scf accuracy    <       0.00000017 Ry

     iteration # 12     ecut=    80.00 Ry     beta= 0.70
     Davidson diagonalization with overlap
     ethr =  3.78E-10,  avg # of iterations =  2.1

     total cpu time spent up to now is      286.0 secs

     total energy              =    -364.95750320 Ry
     Harris-Foulkes estimate   =    -364.95750320 Ry
     estimated scf accuracy    <       0.00000002 Ry

     iteration # 13     ecut=    80.00 Ry     beta= 0.70
     Davidson diagonalization with overlap
     ethr =  3.67E-11,  avg # of iterations =  3.1

     total cpu time spent up to now is      309.7 secs

     End of self-consistent calculation

          k = 0.0500 0.0500 0.0500 (  5047 PWs)   bands (ev):

   -46.2616 -22.5051 -22.5013 -22.5013  -7.2245  -6.1979  -6.1915  -5.0152
    -5.0144  -5.0141  -4.8733  -4.8725   4.5024   6.8271   6.8297   6.9720
     9.0868   9.0884   9.2072   9.5243   9.5550   9.6055  12.3708  12.3948
    12.4001  14.4900

          k = 0.0500 0.0500 0.1500 (  5074 PWs)   bands (ev):

   -46.2613 -22.5119 -22.5047 -22.5009  -7.1382  -6.1663  -6.1600  -5.0238
    -5.0213  -5.0136  -4.9065  -4.8677   4.2048   6.8682   6.8990   7.1638
     8.8471   8.8912   9.2036   9.2996   9.4855   9.5704  12.3983  12.7033
    12.7158  14.5004

          k = 0.0500 0.0500 0.2500 (  5093 PWs)   bands (ev):

   -46.2610 -22.5291 -22.5041 -22.5003  -6.9936  -6.1127  -6.1081  -5.0397
    -5.0315  -5.0127  -4.9628  -4.8612   3.8372   6.8546   7.0292   7.1543
     8.5104   8.5785   9.1464   9.2478   9.5275   9.6504  12.4013  13.1776
    13.1882  14.5004

          k = 0.0500 0.0500 0.3500 (  5090 PWs)   bands (ev):

   -46.2607 -22.5462 -22.5034 -22.4996  -6.8418  -6.0615  -6.0485  -5.0650
    -5.0404  -5.0163  -5.0118  -4.8568   3.5529   6.4562   7.2022   7.3006
     8.1662   8.2242   9.0782   9.3866   9.5864  10.0188  12.4032  13.6132
    13.6236  14.3359

          k = 0.0500 0.0500 0.4500 (  5073 PWs)   bands (ev):

   -46.2605 -22.5567 -22.5030 -22.4992  -6.7435  -6.0320  -6.0064  -5.0961
    -5.0453  -5.0383  -5.0112  -4.8552   3.4077   6.1323   7.3751   7.5407
     7.8892   7.9032   9.0348   9.4572   9.6230  10.4583  12.4013  13.6050
    13.8726  13.8818

          k = 0.0500 0.1500 0.1500 (  5079 PWs)   bands (ev):

   -46.2611 -22.5154 -22.5115 -22.5005  -7.0535  -6.1399  -6.1311  -5.0331
    -5.0229  -5.0196  -4.9028  -4.8826   3.9882   6.8214   6.9503   7.3324
     8.5273   8.7285   9.0896   9.3287   9.3723   9.5661  12.6897  12.7408
    12.9655  14.7489

          k = 0.0500 0.1500 0.2500 (  5077 PWs)   bands (ev):

   -46.2608 -22.5287 -22.5147 -22.4999  -6.9150  -6.0988  -6.0780  -5.0494
    -5.0306  -5.0198  -4.9315  -4.8775   3.6923   6.7735   7.0479   7.2618
     8.2040   8.4897   8.8835   9.3108   9.3743   9.7547  12.7237  13.1823
    13.3565  14.8148

          k = 0.0500 0.1500 0.3500 (  5080 PWs)   bands (ev):

   -46.2605 -22.5457 -22.5140 -22.4992  -6.7735  -6.0515  -6.0245  -5.0702
    -5.0369  -5.0194  -4.9615  -4.8728   3.4466   6.4503   7.1168   7.3256
     7.9119   8.2435   8.8754   9.3278   9.3744  10.0430  12.7187  13.6160
    13.7426  14.4962

          k = 0.0500 0.1500 0.4500 (  5079 PWs)   bands (ev):

   -46.2602 -22.5562 -22.5136 -22.4988  -6.6849  -6.0149  -5.9940  -5.0876
    -5.0428  -5.0191  -4.9726  -4.8736   3.3160   6.1403   7.2212   7.4662
     7.7673   7.9510   8.9596   9.3109   9.3994  10.2679  12.7064  13.8730
    13.9794  14.0120

          k = 0.0500 0.2500 0.2500 (  5076 PWs)   bands (ev):

   -46.2605 -22.5318 -22.5279 -22.4992  -6.7912  -6.0737  -6.0215  -5.0542
    -5.0340  -5.0252  -4.9040  -4.8951   3.4748   6.7088   7.0317   7.2054
     7.9941   8.1447   8.7022   9.0906   9.5831   9.8487  13.1457  13.2248
    13.6486  14.9358

          k = 0.0500 0.2500 0.3500 (  5080 PWs)   bands (ev):

   -46.2601 -22.5449 -22.5310 -22.4986  -6.6775  -6.0305  -5.9631  -5.0631
    -5.0369  -5.0277  -4.9168  -4.8755   3.2789   6.4502   6.8992   7.2690
     7.7796   8.0939   8.5085   9.0396   9.6652   9.9204  13.1810  13.6139
    13.9518  14.7474

          k = 0.0500 0.2500 0.4500 (  5084 PWs)   bands (ev):

   -46.2599 -22.5554 -22.5306 -22.4982  -6.6148  -5.9873  -5.9299  -5.0724
    -5.0412  -5.0301  -4.9108  -4.8729   3.1685   6.1513   6.9550   7.2187
     7.7733   8.0338   8.4266   9.0676   9.6272   9.9731  13.1733  13.8709
    14.1514  14.5878

          k = 0.0500 0.3500 0.3500 (  5079 PWs)   bands (ev):

   -46.2598 -22.5480 -22.5441 -22.4979  -6.6080  -5.9687  -5.8998  -5.0600
    -5.0410  -5.0285  -4.9372  -4.8218   3.1181   6.4112   6.5110   7.3189
     7.6592   7.9553   8.4412   8.8073   9.6245   9.9691  13.5795  13.6438
    14.1798  14.9840

          k = 0.0500 0.3500 0.4500 (  5079 PWs)   bands (ev):

   -46.2596 -22.5546 -22.5475 -22.4975  -6.5807  -5.9070  -5.8600  -5.0631
    -5.0406  -5.0346  -4.9466  -4.7889   3.0235   6.1395   6.5019   7.2814
     7.5970   8.0940   8.2834   8.7563   9.4000  10.1021  13.6143  13.8675
    14.3450  15.1033

          k = 0.0500 0.4500 0.4500 (  5100 PWs)   bands (ev):

   -46.2594 -22.5579 -22.5540 -22.4971  -6.5752  -5.8312  -5.8156  -5.0630
    -5.0392  -5.0359  -4.9697  -4.7403   2.9354   6.0346   6.3191   7.3706
     7.4128   8.1956   8.3040   8.5532   9.0964  10.2683  13.8627  13.8812
    14.4863  15.3430

          k = 0.1500 0.1500 0.1500 (  5095 PWs)   bands (ev):

   -46.2609 -22.5150 -22.5112 -22.5110  -6.9710  -6.1158  -6.1093  -5.0369
    -5.0365  -5.0169  -4.8912  -4.8905   3.8366   6.8277   6.8300   7.4649
     8.3509   8.3593   9.2555   9.2956   9.3912   9.4148  12.9398  12.9629
    12.9649  15.3037

          k = 0.1500 0.1500 0.2500 (  5084 PWs)   bands (ev):

   -46.2606 -22.5282 -22.5143 -22.5104  -6.8363  -6.0843  -6.0631  -5.0561
    -5.0354  -5.0122  -4.9088  -4.8773   3.6085   6.7471   6.8366   7.3118
     8.0240   8.1643   8.9911   9.3592   9.4593   9.6173  12.9312  13.3225
    13.3460  15.1714

          k = 0.1500 0.1500 0.3500 (  5082 PWs)   bands (ev):

   -46.2603 -22.5452 -22.5136 -22.5098  -6.7015  -6.0528  -6.0107  -5.0711
    -5.0295  -5.0031  -4.9320  -4.8723   3.4037   6.4534   6.8335   7.1926
     7.7908   8.2239   8.6819   9.4211   9.4749   9.8811  12.8705  13.6956
    13.7177  14.6611

          k = 0.1500 0.1500 0.4500 (  5084 PWs)   bands (ev):

   -46.2600 -22.5557 -22.5132 -22.5094  -6.6192  -6.0328  -5.9742  -5.0778
    -5.0256  -4.9915  -4.9496  -4.8751   3.2900   6.1471   6.8240   7.2579
     7.6786   8.2981   8.4931   9.4577   9.4672  10.0134  12.8095  13.9284
    13.9557  14.4288

          k = 0.1500 0.2500 0.2500 (  5081 PWs)   bands (ev):

   -46.2603 -22.5314 -22.5275 -22.5098  -6.7106  -6.0643  -6.0294  -5.0575
    -5.0416  -4.9987  -4.8821  -4.8782   3.4645   6.6468   6.7571   7.1162
     7.6741   7.8970   9.1293   9.1775   9.6109   9.6603  13.2155  13.3322
    13.5902  14.9363

          k = 0.1500 0.2500 0.3500 (  5080 PWs)   bands (ev):

   -46.2599 -22.5445 -22.5306 -22.5091  -6.5965  -6.0446  -5.9788  -5.0613
    -5.0341  -4.9821  -4.8876  -4.8602   3.3195   6.4411   6.6729   6.8609
     7.4503   7.9200   8.8628   9.2746   9.6294   9.7606  13.1794  13.6417
    13.8677  14.8943

          k = 0.1500 0.2500 0.4500 (  5077 PWs)   bands (ev):

   -46.2597 -22.5549 -22.5302 -22.5087  -6.5344  -6.0283  -5.9399  -5.0617
    -5.0274  -4.9699  -4.8866  -4.8588   3.2322   6.1542   6.6010   6.8512
     7.3967   8.0126   8.6527   9.3473   9.5391   9.8149  13.1423  13.8764
    14.0694  14.9739

          k = 0.1500 0.3500 0.3500 (  5081 PWs)   bands (ev):

   -46.2596 -22.5476 -22.5437 -22.5085  -6.5206  -6.0018  -5.9424  -5.0550
    -5.0246  -4.9646  -4.8942  -4.8064   3.2217   6.3950   6.4656   6.6551
     7.0609   7.8860   8.9000   9.1038   9.4006   9.9725  13.4847  13.6576
    14.0634  15.1715

          k = 0.1500 0.3500 0.4500 (  5079 PWs)   bands (ev):

   -46.2594 -22.5541 -22.5471 -22.5080  -6.4926  -5.9661  -5.9060  -5.0518
    -5.0114  -4.9547  -4.9037  -4.7737   3.1573   6.1367   6.4521   6.5850
     6.9576   7.9297   8.7176   9.1242   9.2118  10.0952  13.5488  13.8343
    14.2230  15.4516

          k = 0.1500 0.4500 0.4500 (  5073 PWs)   bands (ev):

   -46.2592 -22.5575 -22.5536 -22.5076  -6.4871  -5.9003  -5.8863  -5.0475
    -4.9875  -4.9427  -4.9273  -4.7241   3.1036   6.0268   6.3098   6.6431
     6.7014   7.9418   8.5192   9.0516   9.0759  10.2627  13.8039  13.8350
    14.3512  15.7679

          k = 0.2500 0.2500 0.2500 (  5070 PWs)   bands (ev):

   -46.2599 -22.5307 -22.5269 -22.5266  -6.5861  -6.0444  -6.0383  -5.0460
    -5.0457  -4.9677  -4.8547  -4.8535   3.4288   6.4943   6.4982   7.0590
     7.3712   7.3774   9.2502   9.4662   9.4705   9.7009  13.2570  13.5596
    13.5599  14.9359

          k = 0.2500 0.2500 0.3500 (  5072 PWs)   bands (ev):

   -46.2596 -22.5437 -22.5300 -22.5261  -6.4763  -6.0563  -5.9961  -5.0440
    -5.0287  -4.9298  -4.8390  -4.8324   3.3714   6.3033   6.3787   6.6238
     7.2153   7.3145   8.9332   9.5345   9.5691   9.8127  13.2641  13.6927
    13.8471  15.1455

          k = 0.2500 0.2500 0.4500 (  5073 PWs)   bands (ev):

   -46.2594 -22.5541 -22.5295 -22.5257  -6.4208  -6.0646  -5.9545  -5.0407
    -5.0176  -4.8888  -4.8461  -4.8209   3.3277   6.1534   6.1802   6.5083
     7.1774   7.3633   8.6705   9.5138   9.6016   9.8678  13.2936  13.8570
    14.0523  15.4441

          k = 0.2500 0.3500 0.3500 (  5057 PWs)   bands (ev):

   -46.2592 -22.5469 -22.5430 -22.5254  -6.3828  -6.0432  -6.0029  -5.0312
    -5.0117  -4.8839  -4.8187  -4.7769   3.3994   6.1303   6.1870   6.4254
     6.7489   7.2262   8.4928   9.6294   9.6581   9.9833  13.4568  13.7635
    13.9892  15.4814

          k = 0.2500 0.3500 0.4500 (  5063 PWs)   bands (ev):

   -46.2590 -22.5534 -22.5464 -22.5250  -6.3515  -6.0433  -5.9691  -5.0258
    -4.9967  -4.8443  -4.8176  -4.7434   3.4036   6.0041   6.1296   6.1780
     6.6531   7.2323   8.1209   9.6421   9.6744  10.0945  13.5979  13.8534
    14.1464  15.8547

          k = 0.2500 0.4500 0.4500 (  5070 PWs)   bands (ev):

   -46.2588 -22.5568 -22.5529 -22.5246  -6.3432  -5.9906  -5.9783  -5.0198
    -4.9786  -4.8153  -4.8056  -4.6932   3.4351   5.9746   6.0325   6.0617
     6.3609   7.2262   7.6738   9.6706   9.6813  10.2537  13.8277  13.8750
    14.2596  16.1993

          k = 0.3500 0.3500 0.3500 (  5055 PWs)   bands (ev):

   -46.2589 -22.5462 -22.5423 -22.5422  -6.2672  -6.0579  -6.0525  -5.0046
    -5.0039  -4.8094  -4.7452  -4.7432   3.5855   5.8533   5.8583   6.3250
     6.6827   6.6855   7.8311   9.9094   9.9168  10.0324  13.6152  13.9671
    13.9673  15.8689

          k = 0.3500 0.3500 0.4500 (  5056 PWs)   bands (ev):

   -46.2587 -22.5527 -22.5457 -22.5418  -6.2299  -6.0867  -6.0236  -5.0004
    -4.9876  -4.7545  -4.7305  -4.7004   3.6984   5.6635   5.8023   6.0823
     6.5650   6.6730   7.3366   9.9574  10.0086  10.1282  13.7972  13.9704
    14.1402  16.2709

          k = 0.3500 0.4500 0.4500 (  5051 PWs)   bands (ev):

   -46.2585 -22.5561 -22.5522 -22.5414  -6.1989  -6.0647  -6.0539  -4.9919
    -4.9757  -4.7032  -4.6931  -4.6547   3.9075   5.5781   5.6111   5.9557
     6.3509   6.6259   6.7390  10.0636  10.0728  10.2451  13.9860  14.0370
    14.2147  16.6516

          k = 0.4500 0.4500 0.4500 (  5034 PWs)   bands (ev):

   -46.2583 -22.5557 -22.5518 -22.5518  -6.1197  -6.0974  -6.0930  -4.9749
    -4.9741  -4.6376  -4.6286  -4.6267   4.4016   5.3794   5.3834   5.8452
     5.9541   6.3511   6.3572  10.2322  10.2367  10.2503  14.1488  14.1950
    14.1951  17.0205

          k =-0.0500 0.1500 0.0500 (  5074 PWs)   bands (ev):

   -46.2613 -22.5158 -22.5009 -22.5009  -7.1375  -6.1667  -6.1600  -5.0233
    -5.0210  -5.0145  -4.9060  -4.8683   4.2044   6.8674   6.8960   7.1644
     8.8434   8.8872   9.2053   9.2845   9.5367   9.5443  12.3734  12.7231
    12.7254  14.4885

          k =-0.0500 0.2500 0.0500 (  5093 PWs)   bands (ev):

   -46.2610 -22.5330 -22.5003 -22.5002  -6.9916  -6.1168  -6.1049  -5.0393
    -5.0310  -5.0136  -4.9625  -4.8618   3.8362   6.8527   7.0240   7.1512
     8.5022   8.5672   9.1485   9.2512   9.5573   9.6506  12.3763  13.1927
    13.2007  14.4889

          k =-0.0500 0.3500 0.0500 (  5090 PWs)   bands (ev):

   -46.2607 -22.5501 -22.4996 -22.4996  -6.8381  -6.0685  -6.0433  -5.0651
    -5.0399  -5.0160  -5.0127  -4.8574   3.5511   6.4524   7.1929   7.2926
     8.1618   8.2139   9.0807   9.4099   9.6008  10.0252  12.3781  13.6255
    13.6344  14.3395

          k =-0.0500 0.4500 0.0500 (  5073 PWs)   bands (ev):

   -46.2605 -22.5606 -22.4993 -22.4992  -6.7385  -6.0401  -6.0006  -5.0966
    -5.0448  -5.0379  -5.0121  -4.8558   3.4053   6.1271   7.3581   7.5223
     7.8916   7.9053   9.0379   9.4872   9.6334  10.4649  12.3765  13.6080
    13.8830  13.8904

          k = 0.1500 0.0500 0.1500 (  5079 PWs)   bands (ev):

   -46.2611 -22.5117 -22.5114 -22.5043  -7.0544  -6.1430  -6.1275  -5.0337
    -5.0224  -5.0194  -4.9033  -4.8822   3.9886   6.8211   6.9540   7.3313
     8.5369   8.7105   9.1096   9.3356   9.3480   9.5730  12.6922  12.7395
    12.9556  14.7603

          k =-0.0500 0.2500 0.1500 (  5077 PWs)   bands (ev):

   -46.2608 -22.5325 -22.5109 -22.4999  -6.9137  -6.0988  -6.0786  -5.0494
    -5.0299  -5.0205  -4.9311  -4.8780   3.6916   6.7709   7.0448   7.2613
     8.1974   8.4868   8.8815   9.3251   9.3789   9.7571  12.7032  13.1982
    13.3607  14.8105

          k = 0.2500 0.0500 0.1500 (  5077 PWs)   bands (ev):

   -46.2608 -22.5287 -22.5109 -22.5036  -6.9162  -6.1017  -6.0742  -5.0496
    -5.0300  -5.0198  -4.9319  -4.8776   3.6928   6.7746   7.0488   7.2614
     8.2033   8.4811   8.8881   9.3159   9.3829   9.7498  12.7136  13.1859
    13.3523  14.8224

          k =-0.0500 0.3500 0.1500 (  5080 PWs)   bands (ev):

   -46.2605 -22.5496 -22.5102 -22.4992  -6.7706  -6.0508  -6.0264  -5.0703
    -5.0361  -5.0202  -4.9613  -4.8733   3.4452   6.4452   7.1091   7.3223
     7.9082   8.2363   8.8830   9.3314   9.3914  10.0490  12.6980  13.6295
    13.7462  14.5018

          k = 0.3500 0.0500 0.1500 (  5080 PWs)   bands (ev):

   -46.2605 -22.5457 -22.5102 -22.5030  -6.7751  -6.0527  -6.0215  -5.0701
    -5.0361  -5.0194  -4.9625  -4.8729   3.4471   6.4511   7.1135   7.3280
     7.9093   8.2474   8.8608   9.3308   9.3944  10.0407  12.7080  13.6189
    13.7391  14.5014

          k =-0.0500 0.4500 0.1500 (  5079 PWs)   bands (ev):

   -46.2602 -22.5601 -22.5098 -22.4988  -6.6810  -6.0112  -5.9994  -5.0881
    -5.0419  -5.0199  -4.9725  -4.8742   3.3140   6.1339   7.2056   7.4638
     7.7630   7.9517   8.9700   9.3098   9.4199  10.2759  12.6856  13.8856
    13.9746  14.0237

          k = 0.4500 0.0500 0.1500 (  5079 PWs)   bands (ev):

   -46.2602 -22.5562 -22.5098 -22.5026  -6.6870  -6.0133  -5.9932  -5.0875
    -5.0419  -5.0191  -4.9740  -4.8737   3.3164   6.1404   7.2175   7.4654
     7.7691   7.9561   8.9385   9.3108   9.4249  10.2694  12.6946  13.8776
    13.9754  14.0138

          k = 0.2500 0.0500 0.2500 (  5076 PWs)   bands (ev):

   -46.2605 -22.5282 -22.5277 -22.5030  -6.7945  -6.0752  -6.0170  -5.0540
    -5.0336  -5.0249  -4.9038  -4.8964   3.4760   6.7147   7.0276   7.2101
     7.9935   8.1280   8.7218   9.0919   9.5906   9.8386  13.1398  13.2208
    13.6442  14.9450

          k =-0.0500 0.3500 0.2500 (  5080 PWs)   bands (ev):

   -46.2601 -22.5488 -22.5272 -22.4986  -6.6762  -6.0285  -5.9656  -5.0632
    -5.0366  -5.0281  -4.9169  -4.8757   3.2781   6.4433   6.9019   7.2640
     7.7817   8.0918   8.5050   9.0527   9.6598   9.9285  13.1644  13.6280
    13.9519  14.7520

          k = 0.3500 0.0500 0.2500 (  5080 PWs)   bands (ev):

   -46.2601 -22.5449 -22.5272 -22.5024  -6.6822  -6.0289  -5.9599  -5.0627
    -5.0363  -5.0275  -4.9170  -4.8771   3.2800   6.4529   6.8978   7.2691
     7.7774   8.0861   8.5120   9.0541   9.6664   9.9206  13.1667  13.6170
    13.9479  14.7525

          k =-0.0500 0.4500 0.2500 (  5084 PWs)   bands (ev):

   -46.2599 -22.5592 -22.5268 -22.4982  -6.6129  -5.9806  -5.9370  -5.0728
    -5.0403  -5.0309  -4.9111  -4.8729   3.1673   6.1428   6.9556   7.2134
     7.7785   8.0247   8.4294   9.0826   9.6197   9.9851  13.1562  13.8846
    14.1493  14.5960

          k = 0.4500 0.0500 0.2500 (  5084 PWs)   bands (ev):

   -46.2599 -22.5554 -22.5268 -22.5020  -6.6205  -5.9819  -5.9291  -5.0722
    -5.0402  -5.0301  -4.9110  -4.8749   3.1696   6.1518   6.9567   7.2125
     7.7786   8.0358   8.4116   9.0878   9.6227   9.9822  13.1582  13.8759
    14.1465  14.5911

          k = 0.3500 0.0500 0.3500 (  5079 PWs)   bands (ev):

   -46.2598 -22.5443 -22.5440 -22.5017  -6.6155  -5.9656  -5.8953  -5.0595
    -5.0406  -5.0280  -4.9373  -4.8241   3.1198   6.4282   6.5004   7.3171
     7.6463   7.9558   8.4548   8.8097   9.6229   9.9749  13.5740  13.6401
    14.1757  14.9853

          k =-0.0500 0.4500 0.3500 (  5079 PWs)   bands (ev):

   -46.2596 -22.5584 -22.5436 -22.4975  -6.5802  -5.9008  -5.8661  -5.0633
    -5.0402  -5.0348  -4.9468  -4.7889   3.0230   6.1305   6.5093   7.2757
     7.6054   8.0829   8.2851   8.7646   9.3990  10.1050  13.5989  13.8823
    14.3435  15.1102

          k = 0.4500 0.0500 0.3500 (  5079 PWs)   bands (ev):

   -46.2596 -22.5546 -22.5437 -22.5013  -6.5890  -5.8995  -5.8587  -5.0626
    -5.0399  -5.0343  -4.9469  -4.7914   3.0251   6.1404   6.5084   7.2708
     7.5918   8.0945   8.2882   8.7659   9.3997  10.1108  13.6015  13.8730
    14.3394  15.1058

          k = 0.4500 0.0500 0.4500 (  5100 PWs)   bands (ev):

   -46.2594 -22.5541 -22.5540 -22.5009  -6.5843  -5.8247  -5.8124  -5.0624
    -5.0386  -5.0354  -4.9702  -4.7431   2.9373   6.0384   6.3255   7.3595
     7.3996   8.2068   8.3146   8.5491   9.1003  10.2761  13.8648  13.8753
    14.4797  15.3374

          k =-0.1500 0.2500 0.1500 (  5084 PWs)   bands (ev):

   -46.2606 -22.5321 -22.5106 -22.5103  -6.8347  -6.0791  -6.0694  -5.0560
    -5.0356  -5.0122  -4.9081  -4.8779   3.6077   6.7459   6.8318   7.3123
     8.0228   8.1672   8.9758   9.3755   9.4613   9.6178  12.9204  13.3331
    13.3494  15.1729

          k =-0.1500 0.3500 0.1500 (  5082 PWs)   bands (ev):

   -46.2602 -22.5491 -22.5099 -22.5097  -6.6980  -6.0477  -6.0182  -5.0714
    -5.0300  -5.0027  -4.9312  -4.8729   3.4022   6.4482   6.8246   7.1942
     7.7954   8.2220   8.6753   9.4299   9.4785   9.8866  12.8597  13.7128
    13.7136  14.6636

          k =-0.1500 0.4500 0.1500 (  5084 PWs)   bands (ev):

   -46.2600 -22.5596 -22.5094 -22.5093  -6.6144  -6.0276  -5.9826  -5.0783
    -5.0263  -4.9909  -4.9486  -4.8758   3.2879   6.1404   6.8122   7.2592
     7.6863   8.2836   8.5023   9.4531   9.4822  10.0203  12.7987  13.9421
    13.9534  14.4326

          k = 0.2500 0.1500 0.2500 (  5081 PWs)   bands (ev):

   -46.2603 -22.5277 -22.5273 -22.5136  -6.7129  -6.0667  -6.0250  -5.0573
    -5.0414  -4.9986  -4.8816  -4.8793   3.4653   6.6491   6.7596   7.1151
     7.6719   7.8951   9.1391   9.1785   9.6211   9.6428  13.2161  13.3305
    13.5857  14.9371

          k =-0.1500 0.3500 0.2500 (  5080 PWs)   bands (ev):

   -46.2599 -22.5483 -22.5268 -22.5091  -6.5948  -6.0405  -5.9839  -5.0615
    -5.0344  -4.9815  -4.8875  -4.8605   3.3186   6.4352   6.6672   6.8632
     7.4604   7.9173   8.8485   9.2900   9.6264   9.7656  13.1693  13.6517
    13.8678  14.8960

          k = 0.3500 0.1500 0.2500 (  5080 PWs)   bands (ev):

   -46.2599 -22.5445 -22.5268 -22.5129  -6.5998  -6.0431  -5.9770  -5.0610
    -5.0341  -4.9814  -4.8874  -4.8616   3.3203   6.4432   6.6716   6.8596
     7.4543   7.9150   8.8617   9.2851   9.6212   9.7664  13.1735  13.6448
    13.8641  14.8951

          k =-0.1500 0.4500 0.2500 (  5077 PWs)   bands (ev):

   -46.2597 -22.5588 -22.5263 -22.5087  -6.5318  -6.0215  -5.9482  -5.0621
    -5.0279  -4.9686  -4.8874  -4.8587   3.2309   6.1461   6.5912   6.8562
     7.4106   8.0088   8.6399   9.3603   9.5382   9.8205  13.1316  13.8873
    14.0686  14.9784

          k = 0.4500 0.1500 0.2500 (  5077 PWs)   bands (ev):

   -46.2597 -22.5549 -22.5264 -22.5125  -6.5386  -6.0241  -5.9397  -5.0615
    -5.0275  -4.9686  -4.8867  -4.8607   3.2330   6.1546   6.5984   6.8517
     7.4030   8.0054   8.6527   9.3547   9.5317   9.8244  13.1357  13.8804
    14.0655  14.9750

          k = 0.3500 0.1500 0.3500 (  5081 PWs)   bands (ev):

   -46.2596 -22.5438 -22.5436 -22.5123  -6.5274  -5.9994  -5.9381  -5.0544
    -5.0246  -4.9640  -4.8936  -4.8087   3.2232   6.4271   6.4381   6.6544
     7.0597   7.8822   8.9058   9.1071   9.3947   9.9789  13.4826  13.6554
    14.0601  15.1712

          k =-0.1500 0.4500 0.3500 (  5079 PWs)   bands (ev):

   -46.2594 -22.5580 -22.5432 -22.5080  -6.4920  -5.9588  -5.9135  -5.0520
    -5.0119  -4.9533  -4.9047  -4.7736   3.1568   6.1271   6.4597   6.5794
     6.9664   7.9273   8.7106   9.1260   9.2182  10.0961  13.5385  13.8449
    14.2223  15.4551

          k = 0.4500 0.1500 0.3500 (  5079 PWs)   bands (ev):

   -46.2594 -22.5541 -22.5432 -22.5118  -6.5003  -5.9588  -5.9054  -5.0513
    -5.0117  -4.9531  -4.9037  -4.7763   3.1588   6.1377   6.4568   6.5801
     6.9596   7.9240   8.7198   9.1253   9.2140  10.1029  13.5413  13.8380
    14.2193  15.4524

          k = 0.4500 0.1500 0.4500 (  5073 PWs)   bands (ev):

   -46.2592 -22.5536 -22.5536 -22.5114  -6.4959  -5.8944  -5.8834  -5.0468
    -4.9877  -4.9417  -4.9266  -4.7271   3.1054   6.0309   6.3168   6.6380
     6.6959   7.9374   8.5237   9.0546   9.0757  10.2705  13.8040  13.8321
    14.3477  15.7666

          k =-0.2500 0.3500 0.2500 (  5072 PWs)   bands (ev):

   -46.2596 -22.5476 -22.5262 -22.5260  -6.4736  -6.0517  -6.0031  -5.0444
    -5.0287  -4.9297  -4.8398  -4.8312   3.3705   6.2983   6.3770   6.6228
     7.2398   7.2973   8.9272   9.5353   9.5761   9.8100  13.2599  13.6984
    13.8475  15.1459

          k =-0.2500 0.4500 0.2500 (  5073 PWs)   bands (ev):

   -46.2594 -22.5580 -22.5258 -22.5256  -6.4164  -6.0601  -5.9628  -5.0412
    -5.0177  -4.8883  -4.8472  -4.8195   3.3261   6.1481   6.1705   6.5144
     7.1974   7.3514   8.6648   9.5120   9.6108   9.8647  13.2880  13.8647
    14.0526  15.4463

          k = 0.3500 0.2500 0.3500 (  5057 PWs)   bands (ev):

   -46.2592 -22.5431 -22.5429 -22.5292  -6.3876  -6.0426  -5.9990  -5.0306
    -5.0120  -4.8833  -4.8175  -4.7791   3.4004   6.1328   6.1864   6.4246
     6.7525   7.2209   8.4943   9.6315   9.6525   9.9892  13.4566  13.7625
    13.9875  15.4811

          k =-0.2500 0.4500 0.3500 (  5063 PWs)   bands (ev):

   -46.2590 -22.5573 -22.5425 -22.5250  -6.3503  -6.0364  -5.9769  -5.0260
    -4.9967  -4.8437  -4.8182  -4.7431   3.4028   5.9938   6.1294   6.1829
     6.6613   7.2292   8.1205   9.6330   9.6843  10.0941  13.5921  13.8603
    14.1462  15.8554

          k = 0.4500 0.2500 0.3500 (  5063 PWs)   bands (ev):

   -46.2590 -22.5534 -22.5425 -22.5288  -6.3575  -6.0375  -5.9689  -5.0253
    -4.9971  -4.8429  -4.8168  -4.7459   3.4046   6.0012   6.1341   6.1750
     6.6601   7.2252   8.1224   9.6369   9.6771  10.1012  13.5952  13.8550
    14.1447  15.8544

          k = 0.4500 0.2500 0.4500 (  5070 PWs)   bands (ev):

   -46.2588 -22.5529 -22.5529 -22.5284  -6.3514  -5.9853  -5.9757  -5.0192
    -4.9791  -4.8137  -4.8044  -4.6963   3.4370   5.9796   6.0379   6.0513
     6.3642   7.2196   7.6769   9.6737   9.6762  10.2616  13.8279  13.8735
    14.2577  16.1982

          k =-0.3500 0.4500 0.3500 (  5056 PWs)   bands (ev):

   -46.2587 -22.5565 -22.5419 -22.5418  -6.2260  -6.0828  -6.0311  -5.0010
    -4.9871  -4.7559  -4.7306  -4.6988   3.6973   5.6588   5.8090   6.0778
     6.5690   6.6719   7.3364   9.9658  10.0025  10.1244  13.7943  13.9742
    14.1405  16.2710

          k = 0.4500 0.3500 0.4500 (  5051 PWs)   bands (ev):

   -46.2585 -22.5522 -22.5522 -22.5453  -6.2061  -6.0600  -6.0516  -4.9914
    -4.9762  -4.7015  -4.6918  -4.6579   3.9091   5.5778   5.6085   5.9573
     6.3562   6.6197   6.7405  10.0639  10.0668  10.2528  13.9867  14.0365
    14.2135  16.6511

     the Fermi energy is    10.4271 ev

!    total energy              =    -364.95750320 Ry
     Harris-Foulkes estimate   =    -364.95750320 Ry
     estimated scf accuracy    <          4.2E-09 Ry

     The total energy is the sum of the following terms:

     one-electron contribution =     -82.67960207 Ry
     hartree contribution      =      70.70243723 Ry
     xc contribution           =     -85.79600118 Ry
     ewald contribution        =    -267.19052383 Ry
     smearing contrib. (-TS)   =       0.00618666 Ry

     convergence has been achieved in  13 iterations

     Forces acting on atoms (cartesian axes, Ry/au):

     atom    1 type  1   force =     0.00000000    0.00378715    0.00000000
     atom    2 type  2   force =     0.00000000    0.00027726    0.00000000
     atom    3 type  3   force =     0.00000000   -0.00008107    0.00000000
     atom    4 type  3   force =     0.00000000   -0.00390227    0.00000000
     atom    5 type  3   force =     0.00000000   -0.00008107    0.00000000

     Total force =     0.003904     Total SCF correction =     0.000008


     Computing stress (Cartesian axis) and pressure

          total   stress  (Ry/bohr**3)                   (kbar)     P=   -1.60
  -0.00001466   0.00000000   0.00000000         -2.16      0.00      0.00
   0.00000000  -0.00000326   0.00000000          0.00     -0.48      0.00
   0.00000000   0.00000000  -0.00001466          0.00      0.00     -2.16


     BFGS Geometry Optimization

     number of scf cycles    =   1
     number of bfgs steps    =   0

     energy   new            =    -364.9575031970 Ry

     new trust radius        =       0.0039022701 bohr
     new conv_thr            =       0.0000000100 Ry


ATOMIC_POSITIONS (crystal)
Pb       0.000000000   0.000000000   0.000000000    0   0   0
Ti       0.500000000   0.510000000   0.500000000    0   0   0
O        0.500000000   0.499989176   0.000000000
O        0.500000000  -0.000520997   0.500000000
O        0.000000000   0.499989176   0.500000000



     Writing output data file PbTiO3.save/
     NEW-OLD atomic charge density approx. for the potential

     Check: negative core charge=   -0.000006

     total cpu time spent up to now is      327.4 secs

     Self-consistent Calculation

     iteration #  1     ecut=    80.00 Ry     beta= 0.70
     Davidson diagonalization with overlap
     ethr =  1.00E-06,  avg # of iterations =  2.5

     Threshold (ethr) on eigenvalues was too large:
     Diagonalizing with lowered threshold

     Davidson diagonalization with overlap
     ethr =  6.25E-09,  avg # of iterations =  2.8

     total cpu time spent up to now is      368.0 secs

     total energy              =    -364.95751658 Ry
     Harris-Foulkes estimate   =    -364.95751829 Ry
     estimated scf accuracy    <       0.00000275 Ry

     iteration #  2     ecut=    80.00 Ry     beta= 0.70
     Davidson diagonalization with overlap
     ethr =  6.26E-09,  avg # of iterations =  3.0

     total cpu time spent up to now is      390.4 secs

     total energy              =    -364.95751653 Ry
     Harris-Foulkes estimate   =    -364.95751775 Ry
     estimated scf accuracy    <       0.00000222 Ry

     iteration #  3     ecut=    80.00 Ry     beta= 0.70
     Davidson diagonalization with overlap
     ethr =  5.04E-09,  avg # of iterations =  3.3

     total cpu time spent up to now is      412.4 secs

     total energy              =    -364.95751702 Ry
     Harris-Foulkes estimate   =    -364.95751762 Ry
     estimated scf accuracy    <       0.00000179 Ry

     iteration #  4     ecut=    80.00 Ry     beta= 0.70
     Davidson diagonalization with overlap
     ethr =  4.08E-09,  avg # of iterations =  2.8

     total cpu time spent up to now is      432.2 secs

     total energy              =    -364.95751729 Ry
     Harris-Foulkes estimate   =    -364.95751730 Ry
     estimated scf accuracy    <       0.00000002 Ry

     iteration #  5     ecut=    80.00 Ry     beta= 0.70
     Davidson diagonalization with overlap
     ethr =  4.96E-11,  avg # of iterations =  4.1

     total cpu time spent up to now is      458.3 secs

     total energy              =    -364.95751730 Ry
     Harris-Foulkes estimate   =    -364.95751732 Ry
     estimated scf accuracy    <       0.00000005 Ry

     iteration #  6     ecut=    80.00 Ry     beta= 0.70
     Davidson diagonalization with overlap
     ethr =  4.96E-11,  avg # of iterations =  3.0

     total cpu time spent up to now is      479.9 secs

     End of self-consistent calculation

          k = 0.0500 0.0500 0.0500 (  5047 PWs)   bands (ev):

   -46.2605 -22.5045 -22.5002 -22.5002  -7.2244  -6.1982  -6.1912  -5.0152
    -5.0144  -5.0140  -4.8733  -4.8725   4.5023   6.8271   6.8299   6.9722
     9.0860   9.0875   9.2070   9.5228   9.5548   9.6054  12.3717  12.3968
    12.4021  14.4890

          k = 0.0500 0.0500 0.1500 (  5074 PWs)   bands (ev):

   -46.2602 -22.5109 -22.5041 -22.4998  -7.1381  -6.1666  -6.1598  -5.0238
    -5.0213  -5.0136  -4.9065  -4.8677   4.2047   6.8684   6.8993   7.1640
     8.8464   8.8906   9.2035   9.2996   9.4837   9.5705  12.4004  12.7041
    12.7174  14.5024

          k = 0.0500 0.0500 0.2500 (  5093 PWs)   bands (ev):

   -46.2599 -22.5281 -22.5034 -22.4992  -6.9936  -6.1129  -6.1079  -5.0397
    -5.0314  -5.0127  -4.9628  -4.8612   3.8371   6.8549   7.0294   7.1544
     8.5101   8.5783   9.1463   9.2474   9.5261   9.6502  12.4035  13.1786
    13.1893  14.5024

          k = 0.0500 0.0500 0.3500 (  5090 PWs)   bands (ev):

   -46.2596 -22.5451 -22.5028 -22.4986  -6.8419  -6.0613  -6.0487  -5.0650
    -5.0404  -5.0163  -5.0118  -4.8567   3.5528   6.4565   7.2023   7.3008
     8.1661   8.2243   9.0781   9.3851   9.5858  10.0184  12.4053  13.6142
    13.6247  14.3358

          k = 0.0500 0.0500 0.4500 (  5073 PWs)   bands (ev):

   -46.2594 -22.5557 -22.5024 -22.4982  -6.7436  -6.0317  -6.0066  -5.0961
    -5.0453  -5.0383  -5.0112  -4.8551   3.4075   6.1326   7.3751   7.5409
     7.8893   7.9034   9.0346   9.4554   9.6226  10.4579  12.4035  13.6049
    13.8735  13.8830

          k = 0.0500 0.1500 0.1500 (  5079 PWs)   bands (ev):

   -46.2600 -22.5147 -22.5105 -22.4994  -7.0534  -6.1400  -6.1310  -5.0331
    -5.0229  -5.0196  -4.9027  -4.8826   3.9880   6.8215   6.9503   7.3327
     8.5265   8.7280   9.0891   9.3283   9.3720   9.5663  12.6908  12.7424
    12.9670  14.7502

          k = 0.0500 0.1500 0.2500 (  5077 PWs)   bands (ev):

   -46.2597 -22.5276 -22.5141 -22.4988  -6.9149  -6.0988  -6.0781  -5.0494
    -5.0306  -5.0197  -4.9314  -4.8775   3.6922   6.7736   7.0481   7.2620
     8.2037   8.4895   8.8834   9.3099   9.3739   9.7547  12.7255  13.1831
    13.3578  14.8163

          k = 0.0500 0.1500 0.3500 (  5080 PWs)   bands (ev):

   -46.2594 -22.5447 -22.5134 -22.4982  -6.7734  -6.0515  -6.0244  -5.0701
    -5.0369  -5.0194  -4.9615  -4.8727   3.4465   6.4505   7.1169   7.3257
     7.9118   8.2435   8.8751   9.3273   9.3735  10.0428  12.7206  13.6168
    13.7438  14.4962

          k = 0.0500 0.1500 0.4500 (  5079 PWs)   bands (ev):

   -46.2591 -22.5551 -22.5130 -22.4978  -6.6848  -6.0151  -5.9938  -5.0876
    -5.0428  -5.0190  -4.9726  -4.8736   3.3158   6.1406   7.2212   7.4664
     7.7673   7.9511   8.9591   9.3107   9.3983  10.2675  12.7083  13.8738
    13.9804  14.0122

          k = 0.0500 0.2500 0.2500 (  5076 PWs)   bands (ev):

   -46.2594 -22.5312 -22.5269 -22.4982  -6.7910  -6.0736  -6.0216  -5.0542
    -5.0340  -5.0252  -4.9040  -4.8950   3.4746   6.7085   7.0322   7.2054
     7.9938   8.1446   8.7019   9.0903   9.5826   9.8489  13.1468  13.2261
    13.6499  14.9366

          k = 0.0500 0.2500 0.3500 (  5080 PWs)   bands (ev):

   -46.2590 -22.5439 -22.5304 -22.4975  -6.6774  -6.0306  -5.9631  -5.0631
    -5.0369  -5.0277  -4.9168  -4.8755   3.2787   6.4503   6.8994   7.2690
     7.7796   8.0938   8.5086   9.0388   9.6649   9.9203  13.1826  13.6147
    13.9530  14.7476

          k = 0.0500 0.2500 0.4500 (  5084 PWs)   bands (ev):

   -46.2588 -22.5543 -22.5300 -22.4971  -6.6147  -5.9877  -5.9296  -5.0724
    -5.0412  -5.0301  -4.9107  -4.8729   3.1684   6.1516   6.9550   7.2188
     7.7732   8.0340   8.4267   9.0667   9.6271   9.9726  13.1749  13.8717
    14.1527  14.5878

          k = 0.0500 0.3500 0.3500 (  5079 PWs)   bands (ev):

   -46.2587 -22.5474 -22.5431 -22.4969  -6.6077  -5.9688  -5.8999  -5.0600
    -5.0410  -5.0285  -4.9372  -4.8217   3.1179   6.4105   6.5119   7.3189
     7.6593   7.9554   8.4410   8.8070   9.6242   9.9690  13.5805  13.6451
    14.1810  14.9843

          k = 0.0500 0.3500 0.4500 (  5079 PWs)   bands (ev):

   -46.2585 -22.5535 -22.5469 -22.4965  -6.5804  -5.9074  -5.8598  -5.0631
    -5.0406  -5.0345  -4.9466  -4.7888   3.0233   6.1397   6.5017   7.2816
     7.5970   8.0942   8.2836   8.7556   9.3998  10.1018  13.6158  13.8683
    14.3463  15.1037

          k = 0.0500 0.4500 0.4500 (  5100 PWs)   bands (ev):

   -46.2583 -22.5573 -22.5530 -22.4961  -6.5749  -5.8316  -5.8154  -5.0630
    -5.0392  -5.0359  -4.9697  -4.7402   2.9353   6.0347   6.3190   7.3708
     7.4130   8.1958   8.3039   8.5528   9.0960  10.2680  13.8636  13.8826
    14.4875  15.3440

          k = 0.1500 0.1500 0.1500 (  5095 PWs)   bands (ev):

   -46.2598 -22.5143 -22.5102 -22.5099  -6.9709  -6.1161  -6.1091  -5.0369
    -5.0365  -5.0169  -4.8912  -4.8905   3.8365   6.8277   6.8302   7.4651
     8.3503   8.3591   9.2533   9.2960   9.3910   9.4158  12.9406  12.9645
    12.9664  15.2943

          k = 0.1500 0.1500 0.2500 (  5084 PWs)   bands (ev):

   -46.2595 -22.5272 -22.5137 -22.5094  -6.8362  -6.0845  -6.0629  -5.0560
    -5.0354  -5.0122  -4.9088  -4.8773   3.6083   6.7472   6.8366   7.3119
     8.0239   8.1639   8.9909   9.3583   9.4591   9.6175  12.9327  13.3235
    13.3470  15.1711

          k = 0.1500 0.1500 0.3500 (  5082 PWs)   bands (ev):

   -46.2591 -22.5442 -22.5130 -22.5087  -6.7015  -6.0530  -6.0105  -5.0711
    -5.0295  -5.0031  -4.9320  -4.8723   3.4036   6.4536   6.8335   7.1927
     7.7908   8.2236   8.6818   9.4205   9.4747   9.8809  12.8720  13.6966
    13.7188  14.6611

          k = 0.1500 0.1500 0.4500 (  5084 PWs)   bands (ev):

   -46.2589 -22.5547 -22.5126 -22.5083  -6.6193  -6.0330  -5.9739  -5.0778
    -5.0256  -4.9915  -4.9496  -4.8751   3.2899   6.1474   6.8240   7.2580
     7.6787   8.2982   8.4925   9.4574   9.4669  10.0132  12.8108  13.9294
    13.9568  14.4288

          k = 0.1500 0.2500 0.2500 (  5081 PWs)   bands (ev):

   -46.2591 -22.5308 -22.5264 -22.5087  -6.7105  -6.0643  -6.0295  -5.0575
    -5.0416  -4.9987  -4.8821  -4.8781   3.4644   6.6467   6.7571   7.1165
     7.6740   7.8970   9.1279   9.1780   9.6103   9.6608  13.2164  13.3335
    13.5915  14.9363

          k = 0.1500 0.2500 0.3500 (  5080 PWs)   bands (ev):

   -46.2588 -22.5434 -22.5300 -22.5081  -6.5964  -6.0448  -5.9786  -5.0613
    -5.0340  -4.9821  -4.8876  -4.8601   3.3193   6.4412   6.6730   6.8610
     7.4501   7.9201   8.8629   9.2737   9.6293   9.7604  13.1807  13.6425
    13.8689  14.8945

          k = 0.1500 0.2500 0.4500 (  5077 PWs)   bands (ev):

   -46.2586 -22.5538 -22.5296 -22.5076  -6.5343  -6.0286  -5.9397  -5.0617
    -5.0274  -4.9700  -4.8866  -4.8588   3.2321   6.1545   6.6011   6.8512
     7.3965   8.0127   8.6529   9.3466   9.5391   9.8146  13.1436  13.8772
    14.0706  14.9740

          k = 0.1500 0.3500 0.3500 (  5081 PWs)   bands (ev):

   -46.2585 -22.5470 -22.5426 -22.5074  -6.5204  -6.0019  -5.9424  -5.0550
    -5.0246  -4.9646  -4.8942  -4.8064   3.2215   6.3939   6.4669   6.6551
     7.0610   7.8863   8.8995   9.1037   9.4006   9.9722  13.4856  13.6588
    14.0646  15.1717

          k = 0.1500 0.3500 0.4500 (  5079 PWs)   bands (ev):

   -46.2583 -22.5531 -22.5465 -22.5070  -6.4924  -5.9665  -5.9057  -5.0518
    -5.0114  -4.9548  -4.9037  -4.7736   3.1572   6.1369   6.4519   6.5852
     6.9576   7.9300   8.7175   9.1240   9.2115  10.0948  13.5500  13.8351
    14.2242  15.4518

          k = 0.1500 0.4500 0.4500 (  5073 PWs)   bands (ev):

   -46.2581 -22.5569 -22.5526 -22.5066  -6.4868  -5.9007  -5.8862  -5.0475
    -4.9875  -4.9427  -4.9273  -4.7240   3.1034   6.0269   6.3096   6.6433
     6.7016   7.9421   8.5188   9.0513   9.0760  10.2623  13.8048  13.8362
    14.3524  15.7681

          k = 0.2500 0.2500 0.2500 (  5070 PWs)   bands (ev):

   -46.2588 -22.5301 -22.5259 -22.5256  -6.5860  -6.0447  -6.0380  -5.0460
    -5.0457  -4.9677  -4.8548  -4.8534   3.4287   6.4942   6.4983   7.0590
     7.3711   7.3777   9.2490   9.4664   9.4707   9.7008  13.2578  13.5608
    13.5610  14.9361

          k = 0.2500 0.2500 0.3500 (  5072 PWs)   bands (ev):

   -46.2585 -22.5427 -22.5293 -22.5250  -6.4763  -6.0564  -5.9959  -5.0440
    -5.0287  -4.9297  -4.8390  -4.8324   3.3713   6.3034   6.3785   6.6240
     7.2148   7.3151   8.9329   9.5343   9.5690   9.8126  13.2650  13.6937
    13.8481  15.1457

          k = 0.2500 0.2500 0.4500 (  5073 PWs)   bands (ev):

   -46.2583 -22.5531 -22.5289 -22.5246  -6.4209  -6.0647  -5.9542  -5.0407
    -5.0176  -4.8888  -4.8461  -4.8210   3.3276   6.1537   6.1800   6.5082
     7.1770   7.3637   8.6704   9.5137   9.6011   9.8677  13.2947  13.8578
    14.0533  15.4442

          k = 0.2500 0.3500 0.3500 (  5057 PWs)   bands (ev):

   -46.2581 -22.5463 -22.5419 -22.5244  -6.3826  -6.0432  -6.0030  -5.0312
    -5.0116  -4.8839  -4.8187  -4.7769   3.3992   6.1301   6.1868   6.4258
     6.7489   7.2265   8.4925   9.6291   9.6582   9.9830  13.4576  13.7646
    13.9903  15.4817

          k = 0.2500 0.3500 0.4500 (  5063 PWs)   bands (ev):

   -46.2579 -22.5523 -22.5458 -22.5239  -6.3513  -6.0436  -5.9689  -5.0258
    -4.9966  -4.8443  -4.8176  -4.7433   3.4034   6.0042   6.1293   6.1782
     6.6530   7.2327   8.1207   9.6423   9.6740  10.0942  13.5990  13.8543
    14.1475  15.8549

          k = 0.2500 0.4500 0.4500 (  5070 PWs)   bands (ev):

   -46.2577 -22.5562 -22.5519 -22.5235  -6.3429  -5.9909  -5.9781  -5.0198
    -4.9785  -4.8154  -4.8056  -4.6931   3.4349   5.9741   6.0321   6.0627
     6.3610   7.2265   7.6735   9.6702   9.6816  10.2534  13.8285  13.8761
    14.2606  16.1995

          k = 0.3500 0.3500 0.3500 (  5055 PWs)   bands (ev):

   -46.2578 -22.5456 -22.5413 -22.5411  -6.2672  -6.0581  -6.0522  -5.0046
    -5.0039  -4.8094  -4.7453  -4.7431   3.5854   5.8530   5.8583   6.3252
     6.6828   6.6859   7.8309   9.9090   9.9169  10.0322  13.6160  13.9682
    13.9683  15.8691

          k = 0.3500 0.3500 0.4500 (  5056 PWs)   bands (ev):

   -46.2576 -22.5516 -22.5451 -22.5408  -6.2299  -6.0867  -6.0233  -5.0004
    -4.9876  -4.7545  -4.7305  -4.7005   3.6984   5.6634   5.8020   6.0826
     6.5651   6.6733   7.3365   9.9570  10.0086  10.1281  13.7982  13.9713
    14.1412  16.2711

          k = 0.3500 0.4500 0.4500 (  5051 PWs)   bands (ev):

   -46.2574 -22.5555 -22.5512 -22.5404  -6.1986  -6.0650  -6.0537  -4.9919
    -4.9757  -4.7033  -4.6931  -4.6546   3.9074   5.5780   5.6111   5.9561
     6.3510   6.6263   6.7388  10.0632  10.0730  10.2447  13.9868  14.0379
    14.2157  16.6517

          k = 0.4500 0.4500 0.4500 (  5034 PWs)   bands (ev):

   -46.2572 -22.5550 -22.5507 -22.5507  -6.1198  -6.0975  -6.0928  -4.9749
    -4.9741  -4.6377  -4.6286  -4.6266   4.4015   5.3791   5.3834   5.8456
     5.9539   6.3510   6.3577  10.2318  10.2366  10.2503  14.1497  14.1959
    14.1960  17.0205

          k =-0.0500 0.1500 0.0500 (  5074 PWs)   bands (ev):

   -46.2602 -22.5151 -22.4998 -22.4998  -7.1373  -6.1670  -6.1597  -5.0232
    -5.0210  -5.0145  -4.9060  -4.8683   4.2043   6.8675   6.8960   7.1647
     8.8426   8.8862   9.2052   9.2837   9.5369   9.5444  12.3742  12.7250
    12.7272  14.4895

          k =-0.0500 0.2500 0.0500 (  5093 PWs)   bands (ev):

   -46.2599 -22.5323 -22.4992 -22.4992  -6.9914  -6.1171  -6.1046  -5.0393
    -5.0310  -5.0136  -4.9625  -4.8619   3.8360   6.8527   7.0240   7.1513
     8.5016   8.5663   9.1486   9.2511   9.5576   9.6507  12.3772  13.1943
    13.2023  14.4898

          k =-0.0500 0.3500 0.0500 (  5090 PWs)   bands (ev):

   -46.2596 -22.5494 -22.4986 -22.4986  -6.8379  -6.0689  -6.0430  -5.0650
    -5.0399  -5.0160  -5.0127  -4.8574   3.5508   6.4526   7.1927   7.2926
     8.1614   8.2131   9.0809   9.4101   9.6011  10.0253  12.3789  13.6270
    13.6358  14.3396

          k =-0.0500 0.4500 0.0500 (  5073 PWs)   bands (ev):

   -46.2594 -22.5600 -22.4982 -22.4982  -6.7382  -6.0406  -6.0003  -5.0966
    -5.0448  -5.0378  -5.0121  -4.8559   3.4049   6.1274   7.3577   7.5223
     7.8910   7.9051   9.0380   9.4875   9.6337  10.4650  12.3773  13.6080
    13.8844  13.8918

          k = 0.1500 0.0500 0.1500 (  5079 PWs)   bands (ev):

   -46.2600 -22.5106 -22.5103 -22.5037  -7.0543  -6.1432  -6.1272  -5.0337
    -5.0224  -5.0193  -4.9033  -4.8821   3.9885   6.8211   6.9544   7.3314
     8.5369   8.7091   9.1104   9.3355   9.3457   9.5735  12.6937  12.7411
    12.9564  14.7626

          k =-0.0500 0.2500 0.1500 (  5077 PWs)   bands (ev):

   -46.2597 -22.5319 -22.5098 -22.4988  -6.9136  -6.0988  -6.0787  -5.0494
    -5.0299  -5.0206  -4.9311  -4.8780   3.6915   6.7708   7.0448   7.2616
     8.1968   8.4863   8.8812   9.3252   9.3788   9.7572  12.7040  13.1998
    13.3621  14.8115

          k = 0.2500 0.0500 0.1500 (  5077 PWs)   bands (ev):

   -46.2597 -22.5276 -22.5098 -22.5030  -6.9162  -6.1019  -6.0739  -5.0496
    -5.0300  -5.0197  -4.9319  -4.8776   3.6928   6.7748   7.0491   7.2614
     8.2033   8.4801   8.8883   9.3151   9.3829   9.7494  12.7152  13.1871
    13.3531  14.8245

          k =-0.0500 0.3500 0.1500 (  5080 PWs)   bands (ev):

   -46.2594 -22.5490 -22.5091 -22.4982  -6.7704  -6.0508  -6.0265  -5.0703
    -5.0360  -5.0203  -4.9613  -4.8734   3.4449   6.4451   7.1091   7.3225
     7.9079   8.2356   8.8832   9.3313   9.3916  10.0491  12.6988  13.6310
    13.7476  14.5019

          k = 0.3500 0.0500 0.1500 (  5080 PWs)   bands (ev):

   -46.2594 -22.5447 -22.5091 -22.5024  -6.7752  -6.0528  -6.0213  -5.0701
    -5.0361  -5.0194  -4.9625  -4.8729   3.4470   6.4514   7.1135   7.3281
     7.9093   8.2474   8.8593   9.3306   9.3947  10.0403  12.7094  13.6201
    13.7399  14.5014

          k =-0.0500 0.4500 0.1500 (  5079 PWs)   bands (ev):

   -46.2591 -22.5595 -22.5087 -22.4978  -6.6807  -6.0112  -5.9995  -5.0881
    -5.0418  -5.0199  -4.9725  -4.8742   3.3137   6.1340   7.2054   7.4640
     7.7627   7.9510   8.9702   9.3097   9.4202  10.2760  12.6864  13.8871
    13.9760  14.0237

          k = 0.4500 0.0500 0.1500 (  5079 PWs)   bands (ev):

   -46.2591 -22.5551 -22.5087 -22.5020  -6.6871  -6.0134  -5.9929  -5.0875
    -5.0418  -5.0190  -4.9741  -4.8736   3.3163   6.1408   7.2173   7.4656
     7.7694   7.9564   8.9364   9.3107   9.4255  10.2692  12.6959  13.8788
    13.9761  14.0139

          k = 0.2500 0.0500 0.2500 (  5076 PWs)   bands (ev):

   -46.2594 -22.5271 -22.5266 -22.5024  -6.7946  -6.0753  -6.0167  -5.0540
    -5.0336  -5.0248  -4.9038  -4.8964   3.4760   6.7149   7.0279   7.2102
     7.9934   8.1265   8.7228   9.0912   9.5907   9.8381  13.1409  13.2221
    13.6450  14.9461

          k =-0.0500 0.3500 0.2500 (  5080 PWs)   bands (ev):

   -46.2590 -22.5482 -22.5262 -22.4975  -6.6760  -6.0284  -5.9658  -5.0632
    -5.0366  -5.0281  -4.9168  -4.8757   3.2779   6.4430   6.9025   7.2638
     7.7817   8.0915   8.5047   9.0528   9.6593   9.9289  13.1651  13.6295
    13.9532  14.7522

          k = 0.3500 0.0500 0.2500 (  5080 PWs)   bands (ev):

   -46.2590 -22.5439 -22.5262 -22.5018  -6.6824  -6.0289  -5.9596  -5.0627
    -5.0363  -5.0274  -4.9170  -4.8772   3.2800   6.4532   6.8980   7.2689
     7.7771   8.0853   8.5123   9.0542   9.6663   9.9204  13.1677  13.6182
    13.9486  14.7527

          k =-0.0500 0.4500 0.2500 (  5084 PWs)   bands (ev):

   -46.2588 -22.5586 -22.5257 -22.4971  -6.6126  -5.9804  -5.9375  -5.0729
    -5.0402  -5.0309  -4.9112  -4.8728   3.1670   6.1427   6.9561   7.2130
     7.7789   8.0239   8.4295   9.0828   9.6192   9.9853  13.1570  13.8861
    14.1507  14.5961

          k = 0.4500 0.0500 0.2500 (  5084 PWs)   bands (ev):

   -46.2588 -22.5543 -22.5257 -22.5014  -6.6208  -5.9818  -5.9288  -5.0722
    -5.0402  -5.0301  -4.9109  -4.8750   3.1696   6.1521   6.9570   7.2119
     7.7785   8.0360   8.4104   9.0884   9.6225   9.9824  13.1591  13.8770
    14.1473  14.5911

          k = 0.3500 0.0500 0.3500 (  5079 PWs)   bands (ev):

   -46.2587 -22.5432 -22.5429 -22.5011  -6.6158  -5.9654  -5.8950  -5.0594
    -5.0406  -5.0279  -4.9373  -4.8242   3.1198   6.4284   6.5008   7.3166
     7.6450   7.9559   8.4557   8.8096   9.6228   9.9750  13.5748  13.6412
    14.1765  14.9856

          k =-0.0500 0.4500 0.3500 (  5079 PWs)   bands (ev):

   -46.2585 -22.5578 -22.5426 -22.4965  -6.5799  -5.9006  -5.8665  -5.0633
    -5.0402  -5.0349  -4.9468  -4.7888   3.0228   6.1302   6.5096   7.2757
     7.6057   8.0829   8.2847   8.7647   9.3987  10.1048  13.5996  13.8837
    14.3448  15.1106

          k = 0.4500 0.0500 0.3500 (  5079 PWs)   bands (ev):

   -46.2585 -22.5535 -22.5426 -22.5007  -6.5894  -5.8992  -5.8584  -5.0626
    -5.0399  -5.0342  -4.9469  -4.7916   3.0251   6.1406   6.5088   7.2699
     7.5907   8.0947   8.2886   8.7662   9.3997  10.1110  13.6024  13.8740
    14.3402  15.1060

          k = 0.4500 0.0500 0.4500 (  5100 PWs)   bands (ev):

   -46.2583 -22.5530 -22.5530 -22.5003  -6.5848  -5.8244  -5.8121  -5.0623
    -5.0386  -5.0354  -4.9702  -4.7433   2.9373   6.0386   6.3260   7.3583
     7.3983   8.2073   8.3154   8.5493   9.1005  10.2764  13.8657  13.8762
    14.4805  15.3383

          k =-0.1500 0.2500 0.1500 (  5084 PWs)   bands (ev):

   -46.2595 -22.5315 -22.5095 -22.5093  -6.8345  -6.0788  -6.0697  -5.0560
    -5.0356  -5.0122  -4.9081  -4.8779   3.6075   6.7459   6.8317   7.3127
     8.0225   8.1671   8.9747   9.3758   9.4611   9.6180  12.9212  13.3345
    13.3509  15.1729

          k =-0.1500 0.3500 0.1500 (  5082 PWs)   bands (ev):

   -46.2591 -22.5485 -22.5088 -22.5086  -6.6978  -6.0474  -6.0186  -5.0714
    -5.0300  -5.0027  -4.9311  -4.8729   3.4019   6.4481   6.8243   7.1946
     7.7954   8.2218   8.6746   9.4301   9.4784   9.8867  12.8604  13.7142
    13.7150  14.6637

          k =-0.1500 0.4500 0.1500 (  5084 PWs)   bands (ev):

   -46.2589 -22.5590 -22.5084 -22.5082  -6.6141  -6.0273  -5.9831  -5.0784
    -5.0263  -4.9908  -4.9486  -4.8759   3.2876   6.1405   6.8118   7.2596
     7.6864   8.2830   8.5022   9.4531   9.4824  10.0205  12.7995  13.9435
    13.9547  14.4327

          k = 0.2500 0.1500 0.2500 (  5081 PWs)   bands (ev):

   -46.2591 -22.5267 -22.5262 -22.5130  -6.7129  -6.0669  -6.0247  -5.0573
    -5.0414  -4.9985  -4.8815  -4.8794   3.4653   6.6492   6.7597   7.1152
     7.6715   7.8951   9.1385   9.1788   9.6211   9.6425  13.2173  13.3318
    13.5866  14.9371

          k =-0.1500 0.3500 0.2500 (  5080 PWs)   bands (ev):

   -46.2588 -22.5477 -22.5257 -22.5081  -6.5946  -6.0403  -5.9842  -5.0615
    -5.0344  -4.9815  -4.8875  -4.8604   3.3184   6.4349   6.6672   6.8636
     7.4605   7.9175   8.8474   9.2903   9.6263   9.7656  13.1700  13.6531
    13.8690  14.8962

          k = 0.3500 0.1500 0.2500 (  5080 PWs)   bands (ev):

   -46.2588 -22.5434 -22.5257 -22.5123  -6.6000  -6.0431  -5.9767  -5.0610
    -5.0341  -4.9814  -4.8874  -4.8617   3.3202   6.4435   6.6715   6.8597
     7.4540   7.9149   8.8616   9.2849   9.6208   9.7665  13.1746  13.6459
    13.8650  14.8952

          k =-0.1500 0.4500 0.2500 (  5077 PWs)   bands (ev):

   -46.2586 -22.5582 -22.5253 -22.5076  -6.5315  -6.0213  -5.9487  -5.0621
    -5.0279  -4.9685  -4.8874  -4.8587   3.2306   6.1460   6.5910   6.8565
     7.4108   8.0091   8.6389   9.3606   9.5381   9.8204  13.1323  13.8886
    14.0698  14.9785

          k = 0.4500 0.1500 0.2500 (  5077 PWs)   bands (ev):

   -46.2586 -22.5539 -22.5253 -22.5119  -6.5388  -6.0241  -5.9395  -5.0614
    -5.0275  -4.9686  -4.8867  -4.8608   3.2329   6.1549   6.5982   6.8519
     7.4028   8.0051   8.6527   9.3546   9.5313   9.8246  13.1367  13.8814
    14.0664  14.9750

          k = 0.3500 0.1500 0.3500 (  5081 PWs)   bands (ev):

   -46.2585 -22.5428 -22.5425 -22.5116  -6.5277  -5.9993  -5.9378  -5.0544
    -5.0246  -4.9639  -4.8936  -4.8088   3.2232   6.4274   6.4383   6.6541
     7.0592   7.8822   8.9056   9.1072   9.3945   9.9791  13.4834  13.6565
    14.0610  15.1714

          k =-0.1500 0.4500 0.3500 (  5079 PWs)   bands (ev):

   -46.2583 -22.5574 -22.5422 -22.5070  -6.4917  -5.9585  -5.9140  -5.0520
    -5.0119  -4.9532  -4.9047  -4.7735   3.1566   6.1268   6.4601   6.5793
     6.9667   7.9276   8.7098   9.1260   9.2184  10.0958  13.5392  13.8462
    14.2235  15.4553

          k = 0.4500 0.1500 0.3500 (  5079 PWs)   bands (ev):

   -46.2583 -22.5531 -22.5422 -22.5112  -6.5007  -5.9586  -5.9051  -5.0513
    -5.0117  -4.9531  -4.9036  -4.7764   3.1588   6.1379   6.4571   6.5797
     6.9591   7.9239   8.7198   9.1252   9.2139  10.1031  13.5422  13.8389
    14.2201  15.4525

          k = 0.4500 0.1500 0.4500 (  5073 PWs)   bands (ev):

   -46.2581 -22.5526 -22.5525 -22.5108  -6.4964  -5.8941  -5.8832  -5.0468
    -4.9877  -4.9416  -4.9266  -4.7272   3.1055   6.0311   6.3173   6.6374
     6.6954   7.9374   8.5238   9.0547   9.0757  10.2708  13.8049  13.8331
    14.3485  15.7666

          k =-0.2500 0.3500 0.2500 (  5072 PWs)   bands (ev):

   -46.2585 -22.5470 -22.5252 -22.5249  -6.4733  -6.0514  -6.0035  -5.0444
    -5.0286  -4.9297  -4.8398  -4.8311   3.3703   6.2980   6.3768   6.6232
     7.2400   7.2976   8.9264   9.5352   9.5763   9.8098  13.2606  13.6996
    13.8487  15.1462

          k =-0.2500 0.4500 0.2500 (  5073 PWs)   bands (ev):

   -46.2583 -22.5574 -22.5247 -22.5245  -6.4161  -6.0598  -5.9633  -5.0413
    -5.0177  -4.8883  -4.8472  -4.8195   3.3259   6.1481   6.1702   6.5148
     7.1978   7.3517   8.6641   9.5118   9.6111   9.8644  13.2887  13.8659
    14.0538  15.4465

          k = 0.3500 0.2500 0.3500 (  5057 PWs)   bands (ev):

   -46.2581 -22.5421 -22.5418 -22.5286  -6.3878  -6.0425  -5.9987  -5.0306
    -5.0120  -4.8833  -4.8175  -4.7792   3.4004   6.1328   6.1862   6.4247
     6.7528   7.2210   8.4941   9.6314   9.6522   9.9894  13.4574  13.7635
    13.9884  15.4813

          k =-0.2500 0.4500 0.3500 (  5063 PWs)   bands (ev):

   -46.2579 -22.5567 -22.5415 -22.5239  -6.3500  -6.0362  -5.9773  -5.0260
    -4.9967  -4.8437  -4.8183  -4.7430   3.4026   5.9932   6.1296   6.1833
     6.6615   7.2296   8.1201   9.6326   9.6846  10.0938  13.5928  13.8614
    14.1473  15.8557

          k = 0.4500 0.2500 0.3500 (  5063 PWs)   bands (ev):

   -46.2579 -22.5523 -22.5415 -22.5282  -6.3579  -6.0374  -5.9686  -5.0253
    -4.9971  -4.8428  -4.8167  -4.7460   3.4046   6.0011   6.1344   6.1748
     6.6602   7.2253   8.1224   9.6367   9.6768  10.1014  13.5961  13.8559
    14.1456  15.8546

          k = 0.4500 0.2500 0.4500 (  5070 PWs)   bands (ev):

   -46.2577 -22.5519 -22.5518 -22.5278  -6.3518  -5.9850  -5.9754  -5.0192
    -4.9791  -4.8136  -4.8043  -4.6965   3.4370   5.9796   6.0376   6.0511
     6.3647   7.2196   7.6770   9.6735   9.6760  10.2618  13.8288  13.8744
    14.2585  16.1982

          k =-0.3500 0.4500 0.3500 (  5056 PWs)   bands (ev):

   -46.2576 -22.5559 -22.5409 -22.5407  -6.2258  -6.0825  -6.0315  -5.0010
    -4.9871  -4.7560  -4.7306  -4.6987   3.6972   5.6585   5.8092   6.0780
     6.5692   6.6724   7.3361   9.9661  10.0021  10.1241  13.7951  13.9752
    14.1415  16.2713

          k = 0.4500 0.3500 0.4500 (  5051 PWs)   bands (ev):

   -46.2574 -22.5512 -22.5511 -22.5447  -6.2064  -6.0598  -6.0513  -4.9913
    -4.9763  -4.7014  -4.6916  -4.6580   3.9091   5.5776   5.6081   5.9576
     6.3567   6.6197   6.7405  10.0635  10.0664  10.2531  13.9876  14.0374
    14.2143  16.6512

     the Fermi energy is    10.4270 ev

!    total energy              =    -364.95751731 Ry
     Harris-Foulkes estimate   =    -364.95751731 Ry
     estimated scf accuracy    <          2.0E-09 Ry

     The total energy is the sum of the following terms:

     one-electron contribution =     -82.68657154 Ry
     hartree contribution      =      70.70609387 Ry
     xc contribution           =     -85.79618989 Ry
     ewald contribution        =    -267.18703636 Ry
     smearing contrib. (-TS)   =       0.00618662 Ry

     convergence has been achieved in   6 iterations

     Forces acting on atoms (cartesian axes, Ry/au):

     atom    1 type  1   force =     0.00000000    0.00373622    0.00000000
     atom    2 type  2   force =     0.00000000    0.00045047    0.00000000
     atom    3 type  3   force =     0.00000000   -0.00044396    0.00000000
     atom    4 type  3   force =     0.00000000   -0.00329876    0.00000000
     atom    5 type  3   force =     0.00000000   -0.00044396    0.00000000

     Total force =     0.003358     Total SCF correction =     0.000013


     Computing stress (Cartesian axis) and pressure

          total   stress  (Ry/bohr**3)                   (kbar)     P=   -1.53
  -0.00001463   0.00000000   0.00000000         -2.15      0.00      0.00
   0.00000000  -0.00000186   0.00000000          0.00     -0.27      0.00
   0.00000000   0.00000000  -0.00001463          0.00      0.00     -2.15


     number of scf cycles    =   2
     number of bfgs steps    =   1

     energy   old            =    -364.9575031970 Ry
     energy   new            =    -364.9575173097 Ry

     CASE: energy  _new < energy  _old


     WARNING: bfgs curvature condition failed, Theta= 0.942
     new trust radius        =       0.0042924971 bohr
     new conv_thr            =            1.0E-10 Ry


ATOMIC_POSITIONS (crystal)
Pb       0.000000000   0.000000000   0.000000000    0   0   0
Ti       0.500000000   0.510000000   0.500000000    0   0   0
O        0.500000000   0.499923182   0.000000000
O        0.500000000  -0.001094094   0.500000000
O        0.000000000   0.499923182   0.500000000



     Writing output data file PbTiO3.save/
     NEW-OLD atomic charge density approx. for the potential

     Check: negative core charge=   -0.000006

     total cpu time spent up to now is      497.3 secs

     Self-consistent Calculation

     iteration #  1     ecut=    80.00 Ry     beta= 0.70
     Davidson diagonalization with overlap
     ethr =  1.00E-06,  avg # of iterations =  2.7

     Threshold (ethr) on eigenvalues was too large:
     Diagonalizing with lowered threshold

     Davidson diagonalization with overlap
     ethr =  7.25E-09,  avg # of iterations =  2.9

     total cpu time spent up to now is      538.6 secs

     total energy              =    -364.95753007 Ry
     Harris-Foulkes estimate   =    -364.95753199 Ry
     estimated scf accuracy    <       0.00000320 Ry

     iteration #  2     ecut=    80.00 Ry     beta= 0.70
     Davidson diagonalization with overlap
     ethr =  7.27E-09,  avg # of iterations =  3.0

     total cpu time spent up to now is      560.7 secs

     total energy              =    -364.95753003 Ry
     Harris-Foulkes estimate   =    -364.95753131 Ry
     estimated scf accuracy    <       0.00000227 Ry

     iteration #  3     ecut=    80.00 Ry     beta= 0.70
     Davidson diagonalization with overlap
     ethr =  5.16E-09,  avg # of iterations =  3.4

     total cpu time spent up to now is      583.1 secs

     total energy              =    -364.95753052 Ry
     Harris-Foulkes estimate   =    -364.95753124 Ry
     estimated scf accuracy    <       0.00000219 Ry

     iteration #  4     ecut=    80.00 Ry     beta= 0.70
     Davidson diagonalization with overlap
     ethr =  4.97E-09,  avg # of iterations =  2.8

     total cpu time spent up to now is      603.0 secs

     total energy              =    -364.95753084 Ry
     Harris-Foulkes estimate   =    -364.95753086 Ry
     estimated scf accuracy    <       0.00000003 Ry

     iteration #  5     ecut=    80.00 Ry     beta= 0.70
     Davidson diagonalization with overlap
     ethr =  6.74E-11,  avg # of iterations =  4.0

     total cpu time spent up to now is      628.7 secs

     total energy              =    -364.95753086 Ry
     Harris-Foulkes estimate   =    -364.95753088 Ry
     estimated scf accuracy    <       0.00000006 Ry

     iteration #  6     ecut=    80.00 Ry     beta= 0.70
     Davidson diagonalization with overlap
     ethr =  6.74E-11,  avg # of iterations =  2.9

     total cpu time spent up to now is      650.2 secs

     total energy              =    -364.95753087 Ry
     Harris-Foulkes estimate   =    -364.95753087 Ry
     estimated scf accuracy    <          1.9E-09 Ry

     iteration #  7     ecut=    80.00 Ry     beta= 0.70
     Davidson diagonalization with overlap
     ethr =  4.43E-12,  avg # of iterations =  3.2

     total cpu time spent up to now is      672.0 secs

     End of self-consistent calculation

          k = 0.0500 0.0500 0.0500 (  5047 PWs)   bands (ev):

   -46.2593 -22.5039 -22.4991 -22.4991  -7.2243  -6.1985  -6.1910  -5.0155
    -5.0146  -5.0142  -4.8735  -4.8726   4.5021   6.8271   6.8302   6.9724
     9.0851   9.0865   9.2068   9.5209   9.5546   9.6053  12.3726  12.3992
    12.4045  14.4901

          k = 0.0500 0.0500 0.1500 (  5074 PWs)   bands (ev):

   -46.2591 -22.5098 -22.5035 -22.4987  -7.1380  -6.1669  -6.1595  -5.0240
    -5.0215  -5.0138  -4.9067  -4.8679   4.2045   6.8685   6.8995   7.1641
     8.8454   8.8899   9.2033   9.2996   9.4814   9.5707  12.4028  12.7050
    12.7191  14.5047

          k = 0.0500 0.0500 0.2500 (  5093 PWs)   bands (ev):

   -46.2588 -22.5270 -22.5029 -22.4981  -6.9936  -6.1131  -6.1077  -5.0399
    -5.0317  -5.0129  -4.9630  -4.8614   3.8370   6.8552   7.0296   7.1546
     8.5097   8.5780   9.1461   9.2469   9.5243   9.6499  12.4059  13.1795
    13.1905  14.5047

          k = 0.0500 0.0500 0.3500 (  5090 PWs)   bands (ev):

   -46.2584 -22.5441 -22.5022 -22.4975  -6.8419  -6.0612  -6.0488  -5.0652
    -5.0406  -5.0165  -5.0119  -4.8569   3.5526   6.4568   7.2024   7.3010
     8.1661   8.2244   9.0779   9.3834   9.5850  10.0179  12.4078  13.6151
    13.6257  14.3357

          k = 0.0500 0.0500 0.4500 (  5073 PWs)   bands (ev):

   -46.2582 -22.5546 -22.5018 -22.4971  -6.7436  -6.0315  -6.0068  -5.0963
    -5.0456  -5.0385  -5.0114  -4.8553   3.4073   6.1329   7.3751   7.5411
     7.8895   7.9036   9.0344   9.4532   9.6221  10.4575  12.4059  13.6048
    13.8745  13.8843

          k = 0.0500 0.1500 0.1500 (  5079 PWs)   bands (ev):

   -46.2589 -22.5142 -22.5094 -22.4983  -7.0533  -6.1402  -6.1310  -5.0333
    -5.0231  -5.0198  -4.9029  -4.8828   3.9878   6.8216   6.9504   7.3330
     8.5256   8.7274   9.0885   9.3278   9.3716   9.5664  12.6919  12.7442
    12.9687  14.7516

          k = 0.0500 0.1500 0.2500 (  5077 PWs)   bands (ev):

   -46.2586 -22.5265 -22.5135 -22.4977  -6.9149  -6.0988  -6.0781  -5.0496
    -5.0308  -5.0199  -4.9316  -4.8776   3.6920   6.7737   7.0482   7.2623
     8.2033   8.4891   8.8832   9.3088   9.3733   9.7547  12.7277  13.1839
    13.3592  14.8180

          k = 0.0500 0.1500 0.3500 (  5080 PWs)   bands (ev):

   -46.2582 -22.5436 -22.5128 -22.4971  -6.7734  -6.0516  -6.0244  -5.0703
    -5.0372  -5.0195  -4.9616  -4.8729   3.4463   6.4507   7.1171   7.3258
     7.9117   8.2435   8.8746   9.3266   9.3725  10.0425  12.7228  13.6176
    13.7451  14.4962

          k = 0.0500 0.1500 0.4500 (  5079 PWs)   bands (ev):

   -46.2580 -22.5541 -22.5124 -22.4967  -6.6848  -6.0153  -5.9936  -5.0878
    -5.0431  -5.0192  -4.9727  -4.8738   3.3156   6.1409   7.2213   7.4666
     7.7674   7.9511   8.9585   9.3104   9.3970  10.2671  12.7104  13.8746
    13.9814  14.0125

          k = 0.0500 0.2500 0.2500 (  5076 PWs)   bands (ev):

   -46.2582 -22.5306 -22.5258 -22.4971  -6.7909  -6.0737  -6.0217  -5.0544
    -5.0342  -5.0254  -4.9042  -4.8952   3.4744   6.7082   7.0328   7.2054
     7.9935   8.1444   8.7015   9.0900   9.5820   9.8491  13.1480  13.2276
    13.6512  14.9373

          k = 0.0500 0.2500 0.3500 (  5080 PWs)   bands (ev):

   -46.2579 -22.5428 -22.5299 -22.4964  -6.6772  -6.0308  -5.9631  -5.0633
    -5.0372  -5.0279  -4.9169  -4.8756   3.2785   6.4504   6.8996   7.2690
     7.7794   8.0936   8.5086   9.0379   9.6645   9.9201  13.1845  13.6154
    13.9543  14.7477

          k = 0.0500 0.2500 0.4500 (  5084 PWs)   bands (ev):

   -46.2577 -22.5532 -22.5294 -22.4960  -6.6146  -5.9881  -5.9294  -5.0726
    -5.0415  -5.0302  -4.9109  -4.8730   3.1682   6.1519   6.9550   7.2189
     7.7730   8.0341   8.4268   9.0656   9.6270   9.9721  13.1767  13.8725
    14.1540  14.5878

          k = 0.0500 0.3500 0.3500 (  5079 PWs)   bands (ev):

   -46.2576 -22.5468 -22.5420 -22.4958  -6.6075  -5.9689  -5.9000  -5.0602
    -5.0412  -5.0287  -4.9374  -4.8218   3.1177   6.4096   6.5129   7.3188
     7.6594   7.9553   8.4408   8.8067   9.6238   9.9688  13.5816  13.6465
    14.1823  14.9847

          k = 0.0500 0.3500 0.4500 (  5079 PWs)   bands (ev):

   -46.2574 -22.5524 -22.5463 -22.4954  -6.5802  -5.9079  -5.8596  -5.0633
    -5.0409  -5.0347  -4.9468  -4.7889   3.0231   6.1400   6.5015   7.2817
     7.5968   8.0944   8.2838   8.7549   9.3995  10.1013  13.6175  13.8690
    14.3476  15.1041

          k = 0.0500 0.4500 0.4500 (  5100 PWs)   bands (ev):

   -46.2571 -22.5567 -22.5519 -22.4950  -6.5746  -5.8321  -5.8153  -5.0633
    -5.0395  -5.0361  -4.9699  -4.7403   2.9350   6.0348   6.3189   7.3709
     7.4132   8.1960   8.3038   8.5524   9.0956  10.2676  13.8644  13.8842
    14.4888  15.3450

          k = 0.1500 0.1500 0.1500 (  5095 PWs)   bands (ev):

   -46.2587 -22.5138 -22.5091 -22.5088  -6.9708  -6.1164  -6.1088  -5.0371
    -5.0367  -5.0171  -4.8914  -4.8906   3.8363   6.8277   6.8303   7.4653
     8.3496   8.3589   9.2505   9.2964   9.3908   9.4169  12.9415  12.9661
    12.9680  15.2953

          k = 0.1500 0.1500 0.2500 (  5084 PWs)   bands (ev):

   -46.2584 -22.5261 -22.5131 -22.5083  -6.8362  -6.0847  -6.0627  -5.0563
    -5.0356  -5.0124  -4.9090  -4.8775   3.6082   6.7473   6.8367   7.3120
     8.0237   8.1635   8.9908   9.3572   9.4587   9.6178  12.9344  13.3245
    13.3482  15.1709

          k = 0.1500 0.1500 0.3500 (  5082 PWs)   bands (ev):

   -46.2580 -22.5431 -22.5124 -22.5076  -6.7015  -6.0532  -6.0102  -5.0713
    -5.0297  -5.0033  -4.9322  -4.8724   3.4035   6.4539   6.8334   7.1928
     7.7907   8.2232   8.6816   9.4198   9.4744   9.8808  12.8736  13.6975
    13.7199  14.6610

          k = 0.1500 0.1500 0.4500 (  5084 PWs)   bands (ev):

   -46.2578 -22.5536 -22.5120 -22.5072  -6.6194  -6.0331  -5.9736  -5.0780
    -5.0258  -4.9917  -4.9498  -4.8753   3.2897   6.1477   6.8239   7.2581
     7.6787   8.2982   8.4919   9.4569   9.4665  10.0129  12.8123  13.9302
    13.9580  14.4288

          k = 0.1500 0.2500 0.2500 (  5081 PWs)   bands (ev):

   -46.2580 -22.5302 -22.5253 -22.5076  -6.7104  -6.0643  -6.0296  -5.0577
    -5.0418  -4.9989  -4.8824  -4.8783   3.4642   6.6465   6.7571   7.1169
     7.6738   7.8970   9.1262   9.1786   9.6096   9.6615  13.2174  13.3348
    13.5928  14.9363

          k = 0.1500 0.2500 0.3500 (  5080 PWs)   bands (ev):

   -46.2577 -22.5423 -22.5294 -22.5070  -6.5963  -6.0450  -5.9785  -5.0615
    -5.0342  -4.9823  -4.8879  -4.8602   3.3191   6.4413   6.6730   6.8612
     7.4498   7.9203   8.8630   9.2727   9.6292   9.7602  13.1821  13.6433
    13.8702  14.8946

          k = 0.1500 0.2500 0.4500 (  5077 PWs)   bands (ev):

   -46.2575 -22.5528 -22.5290 -22.5066  -6.5342  -6.0290  -5.9394  -5.0619
    -5.0275  -4.9703  -4.8868  -4.8589   3.2319   6.1548   6.6011   6.8511
     7.3962   8.0128   8.6530   9.3458   9.5390   9.8141  13.1451  13.8779
    14.0719  14.9741

          k = 0.1500 0.3500 0.3500 (  5081 PWs)   bands (ev):

   -46.2574 -22.5464 -22.5415 -22.5063  -6.5202  -6.0020  -5.9426  -5.0552
    -5.0248  -4.9648  -4.8944  -4.8065   3.2212   6.3926   6.4683   6.6551
     7.0609   7.8865   8.8988   9.1035   9.4006   9.9718  13.4865  13.6600
    14.0658  15.1719

          k = 0.1500 0.3500 0.4500 (  5079 PWs)   bands (ev):

[...]
    -5.0417  -4.9653  -4.8545  -4.8253   3.4101   6.4096   6.4842   6.9743
     7.4725   7.4942   9.0925   9.4778   9.5144   9.6410  13.2871  13.6901
    13.7359  14.9929

          k = 0.2500 0.2500 0.3500 (  5072 PWs)   bands (ev):

   -46.1196 -22.4605 -22.4060 -22.3885  -6.5114  -6.0847  -5.9967  -5.0398
    -5.0252  -4.9288  -4.8350  -4.8071   3.3551   6.2751   6.3379   6.6465
     7.1757   7.4951   8.9439   9.4507   9.5332   9.7720  13.3622  13.7625
    13.9752  15.1959

          k = 0.2500 0.2500 0.4500 (  5073 PWs)   bands (ev):

   -46.1194 -22.4600 -22.4163 -22.3881  -6.4603  -6.0908  -5.9602  -5.0362
    -5.0136  -4.8935  -4.8310  -4.8013   3.3135   6.1694   6.2227   6.4611
     7.1056   7.5491   8.7109   9.4699   9.5002   9.8305  13.4504  13.8646
    14.1683  15.4600

          k = 0.2500 0.3500 0.3500 (  5057 PWs)   bands (ev):

   -46.1193 -22.4777 -22.4052 -22.3878  -6.3919  -6.0840  -6.0141  -5.0301
    -5.0074  -4.8907  -4.8115  -4.7496   3.3787   6.0384   6.1625   6.4422
     6.8301   7.3607   8.5081   9.5295   9.6666   9.9021  13.5191  13.9088
    14.1002  15.5234

          k = 0.2500 0.3500 0.4500 (  5063 PWs)   bands (ev):

   -46.1190 -22.4772 -22.4155 -22.3874  -6.3583  -6.0982  -5.9747  -5.0241
    -4.9919  -4.8617  -4.8026  -4.7159   3.3895   6.0052   6.0394   6.2385
     6.6705   7.3928   8.1462   9.5526   9.6583  10.0159  13.7408  13.9047
    14.2488  15.8803

          k = 0.2500 0.4500 0.4500 (  5070 PWs)   bands (ev):

   -46.1188 -22.4878 -22.4150 -22.3870  -6.3331  -6.0590  -5.9844  -5.0193
    -4.9740  -4.8409  -4.7869  -4.6643   3.4218   5.8350   6.0293   6.1176
     6.4637   7.3612   7.7043   9.5530   9.6997  10.1697  13.8947  14.0287
    14.3361  16.2153

          k = 0.3500 0.3500 0.3500 (  5055 PWs)   bands (ev):

   -46.1189 -22.4770 -22.4046 -22.4045  -6.2989  -6.0940  -6.0518  -5.0047
    -4.9978  -4.8186  -4.7411  -4.7162   3.5604   5.7950   5.8574   6.2769
     6.7918   6.8549   7.8700   9.8053   9.8880   9.9952  13.6793  14.0654
    14.0879  15.9045

          k = 0.3500 0.3500 0.4500 (  5056 PWs)   bands (ev):

   -46.1187 -22.4765 -22.4148 -22.4041  -6.2733  -6.1096  -6.0289  -4.9966
    -4.9849  -4.7655  -4.7183  -4.6834   3.6727   5.6644   5.7511   6.1013
     6.6289   6.8426   7.3797   9.8620   9.9664  10.1079  13.8907  14.0375
    14.2390  16.2968

          k = 0.3500 0.4500 0.4500 (  5051 PWs)   bands (ev):

   -46.1185 -22.4870 -22.4144 -22.4036  -6.2022  -6.1233  -6.0590  -4.9911
    -4.9705  -4.7364  -4.6741  -4.6289   3.8749   5.5322   5.6128   5.9512
     6.4418   6.7475   6.8366   9.9632  10.0872  10.1623  14.0616  14.1461
    14.3005  16.6629

          k = 0.4500 0.4500 0.4500 (  5034 PWs)   bands (ev):

   -46.1183 -22.4866 -22.4139 -22.4139  -6.1739  -6.1096  -6.0966  -4.9746
    -4.9677  -4.6722  -4.6100  -4.6050   4.3311   5.3631   5.3872   5.8551
     6.0312   6.4390   6.5250  10.1467  10.1594  10.2607  14.2236  14.2781
    14.2857  17.0276

          k =-0.0500 0.1500 0.0500 (  5074 PWs)   bands (ev):

   -46.1214 -22.4461 -22.3636 -22.3636  -7.1481  -6.1964  -6.1312  -5.0193
    -5.0174  -5.0159  -4.8799  -4.8761   4.1861   6.8470   6.8480   7.2047
     8.6382   8.6615   9.1238   9.1335   9.5153   9.5189  12.4790  13.1333
    13.1516  14.6718

          k =-0.0500 0.2500 0.0500 (  5093 PWs)   bands (ev):

   -46.1210 -22.4636 -22.3629 -22.3629  -6.9927  -6.1554  -6.0759  -5.0345
    -5.0268  -5.0153  -4.9372  -4.8696   3.8040   6.8334   6.9297   7.1194
     8.3820   8.4064   9.0840   9.2025   9.5637   9.6526  12.4814  13.5291
    13.5556  14.6753

          k =-0.0500 0.3500 0.0500 (  5090 PWs)   bands (ev):

   -46.1207 -22.4810 -22.3623 -22.3623  -6.8265  -6.1193  -6.0140  -5.0556
    -5.0354  -5.0144  -4.9954  -4.8650   3.5009   6.4703   7.0182   7.1469
     8.1578   8.1692   9.0222   9.4072   9.6137  10.0425  12.4828  13.9083
    13.9408  14.3242

          k =-0.0500 0.4500 0.0500 (  5073 PWs)   bands (ev):

   -46.1205 -22.4918 -22.3619 -22.3619  -6.7160  -6.1014  -5.9712  -5.0798
    -5.0401  -5.0247  -5.0138  -4.8634   3.3415   6.1616   7.0786   7.2319
     8.0106   8.0262   8.9820   9.4914   9.6470  10.4962  12.4810  13.5901
    14.1366  14.1743

          k = 0.1500 0.0500 0.1500 (  5079 PWs)   bands (ev):

   -46.1212 -22.4344 -22.3743 -22.3740  -7.0782  -6.1686  -6.1057  -5.0360
    -5.0197  -5.0152  -4.9048  -4.8546   3.9777   6.8040   6.9939   7.3143
     8.4444   8.5092   8.9990   9.1713   9.3559   9.5987  12.9496  12.9952
    13.0650  15.1482

          k =-0.0500 0.2500 0.1500 (  5077 PWs)   bands (ev):

   -46.1208 -22.4632 -22.3734 -22.3625  -6.9175  -6.1306  -6.0629  -5.0445
    -5.0265  -5.0212  -4.9062  -4.8820   3.6643   6.7158   6.9687   7.2675
     8.1120   8.3717   8.8373   9.2516   9.3549   9.7979  12.7901  13.5359
    13.5924  14.9967

          k = 0.2500 0.0500 0.1500 (  5077 PWs)   bands (ev):

   -46.1208 -22.4338 -22.3911 -22.3735  -6.9482  -6.1261  -6.0590  -5.0525
    -5.0250  -5.0147  -4.9237  -4.8570   3.6820   6.7795   7.0570   7.2602
     8.1663   8.3319   8.8879   9.1669   9.3748   9.7214  12.9807  13.3037
    13.4291  15.1777

          k =-0.0500 0.3500 0.1500 (  5080 PWs)   bands (ev):

   -46.1205 -22.4805 -22.3727 -22.3619  -6.7608  -6.0939  -6.0129  -5.0632
    -5.0307  -5.0217  -4.9388  -4.8777   3.4033   6.4155   6.9737   7.2399
     7.9164   8.1799   8.8922   9.2417   9.4099  10.1022  12.7822  13.9061
    13.9570  14.5086

          k = 0.3500 0.0500 0.1500 (  5080 PWs)   bands (ev):

   -46.1205 -22.4332 -22.4080 -22.3728  -6.8158  -6.0748  -6.0153  -5.0712
    -5.0240  -5.0139  -4.9531  -4.8570   3.4348   6.5039   7.0871   7.3665
     7.8805   8.2936   8.6376   9.2357   9.4067   9.9992  12.9727  13.6959
    13.7959  14.5416

          k =-0.0500 0.4500 0.1500 (  5079 PWs)   bands (ev):

   -46.1203 -22.4912 -22.3723 -22.3615  -6.6601  -6.0706  -5.9805  -5.0786
    -5.0352  -5.0216  -4.9524  -4.8791   3.2609   6.1306   6.9754   7.3178
     7.8015   8.0448   8.9788   9.2195   9.4463  10.3392  12.7692  13.9907
    14.1451  14.1922

          k = 0.4500 0.0500 0.1500 (  5079 PWs)   bands (ev):

   -46.1203 -22.4327 -22.4184 -22.3724  -6.7333  -6.0329  -5.9943  -5.0840
    -5.0208  -5.0143  -4.9716  -4.8595   3.3021   6.2310   7.1948   7.4622
     7.8028   8.0358   8.6191   9.2442   9.4345  10.2489  12.9475  13.9493
    14.0204  14.0571

          k = 0.2500 0.0500 0.2500 (  5076 PWs)   bands (ev):

   -46.1205 -22.4332 -22.3906 -22.3902  -6.8384  -6.0942  -6.0080  -5.0562
    -5.0295  -5.0124  -4.8984  -4.8759   3.4654   6.7362   6.9908   7.2553
     7.9499   7.9623   8.8623   9.0289   9.5702   9.7884  13.2418  13.3560
    13.6890  15.1454

          k =-0.0500 0.3500 0.2500 (  5080 PWs)   bands (ev):

   -46.1201 -22.4797 -22.3896 -22.3612  -6.6662  -6.0647  -5.9761  -5.0578
    -5.0350  -5.0248  -4.9135  -4.8532   3.2502   6.3447   6.9532   7.1705
     7.7980   8.0299   8.4856   9.0750   9.5254  10.0128  13.2185  13.9293
    14.0644  14.7981

          k = 0.3500 0.0500 0.2500 (  5080 PWs)   bands (ev):

   -46.1201 -22.4325 -22.4072 -22.3897  -6.7377  -6.0426  -5.9592  -5.0630
    -5.0280  -5.0079  -4.9000  -4.8761   3.2683   6.5095   6.8864   7.2797
     7.7308   7.9920   8.5611   9.0849   9.6353   9.8998  13.2731  13.7002
    13.9591  14.8270

          k =-0.0500 0.4500 0.2500 (  5084 PWs)   bands (ev):

   -46.1199 -22.4904 -22.3891 -22.3608  -6.5916  -6.0255  -5.9509  -5.0664
    -5.0340  -5.0304  -4.9141  -4.8464   3.1327   6.0793   6.9223   7.1692
     7.7323   7.9970   8.4653   9.1132   9.5049  10.0643  13.2074  14.1607
    14.2352  14.6555

          k = 0.4500 0.0500 0.2500 (  5084 PWs)   bands (ev):

   -46.1199 -22.4321 -22.4176 -22.3892  -6.6824  -5.9926  -5.9353  -5.0687
    -5.0236  -5.0100  -4.8956  -4.8807   3.1564   6.2394   6.9666   7.1695
     7.7815   8.0640   8.2860   9.1592   9.5770   9.9978  13.2604  13.9596
    14.1387  14.6271

          k = 0.3500 0.0500 0.3500 (  5079 PWs)   bands (ev):

   -46.1198 -22.4318 -22.4065 -22.4063  -6.6817  -5.9764  -5.9026  -5.0588
    -5.0282  -4.9992  -4.9132  -4.8375   3.1074   6.4471   6.5950   7.2794
     7.5257   7.9523   8.5410   8.8541   9.6133   9.9747  13.6204  13.7394
    14.1344  15.0683

          k =-0.0500 0.4500 0.3500 (  5079 PWs)   bands (ev):

   -46.1196 -22.4895 -22.4058 -22.3602  -6.5560  -5.9673  -5.8815  -5.0584
    -5.0406  -5.0261  -4.9437  -4.7603   3.0089   6.0230   6.6359   7.1941
     7.6377   7.9081   8.3404   8.8134   9.3865  10.0638  13.6089  14.1655
    14.3992  15.2118

          k = 0.4500 0.0500 0.3500 (  5079 PWs)   bands (ev):

   -46.1196 -22.4314 -22.4168 -22.4059  -6.6587  -5.9123  -5.8724  -5.0590
    -5.0210  -5.0008  -4.9271  -4.8089   3.0116   6.2046   6.6051   7.1878
     7.4928   8.1106   8.3320   8.8366   9.4165  10.1196  13.6685  13.9588
    14.2557  15.1631

          k = 0.4500 0.0500 0.4500 (  5100 PWs)   bands (ev):

   -46.1194 -22.4309 -22.4163 -22.4163  -6.6553  -5.8443  -5.8326  -5.0564
    -5.0069  -4.9949  -4.9600  -4.7646   2.9231   6.0858   6.4821   7.2516
     7.2823   8.2439   8.3693   8.6040   9.1601  10.2894  13.9446  13.9669
    14.3284  15.3455

          k =-0.1500 0.2500 0.1500 (  5084 PWs)   bands (ev):

   -46.1206 -22.4627 -22.3731 -22.3729  -6.8426  -6.1113  -6.0573  -5.0521
    -5.0349  -5.0091  -4.8817  -4.8808   3.5829   6.7143   6.7316   7.3200
     8.0205   8.1165   8.7960   9.3302   9.4541   9.7015  12.9847  13.5367
    13.6097  15.1826

          k =-0.1500 0.3500 0.1500 (  5082 PWs)   bands (ev):

   -46.1203 -22.4800 -22.3724 -22.3723  -6.6916  -6.0745  -6.0259  -5.0675
    -5.0300  -4.9976  -4.9045  -4.8767   3.3646   6.4180   6.6655   7.2047
     7.8842   8.1085   8.6292   9.3512   9.4967   9.9615  12.9275  13.8880
    13.9457  14.6752

          k =-0.1500 0.4500 0.1500 (  5084 PWs)   bands (ev):

   -46.1201 -22.4907 -22.3720 -22.3718  -6.5967  -6.0503  -6.0058  -5.0749
    -5.0271  -4.9839  -4.9215  -4.8804   3.2403   6.1331   6.6174   7.2431
     7.8256   8.1037   8.5616   9.3510   9.5225  10.0947  12.8760  14.1125
    14.1554  14.4403

          k = 0.2500 0.1500 0.2500 (  5081 PWs)   bands (ev):

   -46.1203 -22.4439 -22.3901 -22.3897  -6.7509  -6.0915  -6.0156  -5.0545
    -5.0377  -4.9926  -4.8804  -4.8539   3.4522   6.6237   6.7483   7.0939
     7.6665   7.9311   9.0389   9.2014   9.5913   9.6218  13.3141  13.4651
    13.6643  14.9974

          k =-0.1500 0.3500 0.2500 (  5080 PWs)   bands (ev):

   -46.1199 -22.4793 -22.3892 -22.3717  -6.5910  -6.0632  -6.0073  -5.0593
    -5.0332  -4.9767  -4.8830  -4.8375   3.2905   6.3341   6.5786   6.9272
     7.5354   7.9265   8.7139   9.3225   9.5589   9.8080  13.2117  13.8781
    13.9972  14.9340

          k = 0.3500 0.1500 0.2500 (  5080 PWs)   bands (ev):

   -46.1199 -22.4432 -22.4067 -22.3892  -6.6498  -6.0608  -5.9759  -5.0566
    -5.0294  -4.9704  -4.8718  -4.8546   3.3070   6.4690   6.6521   6.8561
     7.4567   7.9445   8.8808   9.2330   9.5607   9.7663  13.2950  13.7087
    13.9270  14.9470

          k =-0.1500 0.4500 0.2500 (  5077 PWs)   bands (ev):

   -46.1197 -22.4899 -22.3887 -22.3712  -6.5158  -6.0316  -5.9964  -5.0610
    -5.0279  -4.9583  -4.8909  -4.8311   3.1957   6.0881   6.4652   6.9136
     7.5194   7.9710   8.5616   9.3790   9.5182   9.8211  13.1922  14.1029
    14.1823  15.0009

          k = 0.4500 0.1500 0.2500 (  5077 PWs)   bands (ev):

   -46.1197 -22.4428 -22.4171 -22.3888  -6.5950  -6.0373  -5.9458  -5.0563
    -5.0222  -4.9489  -4.8708  -4.8616   3.2193   6.2355   6.5877   6.8238
     7.4055   8.0209   8.6999   9.2922   9.4648   9.8353  13.2744  13.9136
    14.1276  14.9890

          k = 0.3500 0.1500 0.3500 (  5081 PWs)   bands (ev):

   -46.1196 -22.4425 -22.4061 -22.4059  -6.5907  -6.0108  -5.9427  -5.0485
    -5.0191  -4.9446  -4.8655  -4.8215   3.2091   6.4278   6.4675   6.6504
     7.0945   7.9154   8.9380   9.0985   9.3357   9.9779  13.5361  13.7547
    14.0814  15.2291

          k =-0.1500 0.4500 0.3500 (  5079 PWs)   bands (ev):

   -46.1194 -22.4890 -22.4054 -22.3706  -6.4737  -6.0034  -5.9442  -5.0512
    -5.0121  -4.9447  -4.9047  -4.7445   3.1391   6.0059   6.5234   6.5783
     7.0115   7.9631   8.6528   9.1141   9.2360  10.0238  13.5758  14.0697
    14.3003  15.4977

          k = 0.4500 0.1500 0.3500 (  5079 PWs)   bands (ev):

   -46.1194 -22.4421 -22.4163 -22.4055  -6.5682  -5.9688  -5.9162  -5.0449
    -5.0061  -4.9247  -4.8776  -4.7941   3.1437   6.1966   6.4892   6.5613
     6.9742   7.9584   8.7815   9.0926   9.1713  10.1097  13.6255  13.9038
    14.2202  15.4836

          k = 0.4500 0.1500 0.4500 (  5073 PWs)   bands (ev):

   -46.1192 -22.4416 -22.4158 -22.4158  -6.5658  -5.9086  -5.8977  -5.0400
    -4.9838  -4.9086  -4.8951  -4.7503   3.0892   6.0752   6.4415   6.5930
     6.6803   7.9775   8.5888   9.0330   9.0454  10.2839  13.8812  13.9202
    14.3059  15.7975

          k =-0.2500 0.3500 0.2500 (  5072 PWs)   bands (ev):

   -46.1196 -22.4785 -22.3886 -22.3884  -6.4788  -6.0600  -6.0410  -5.0437
    -5.0254  -4.9300  -4.8376  -4.8022   3.3439   6.1870   6.3275   6.6452
     7.3436   7.3902   8.8536   9.5230   9.5875   9.7289  13.2956  13.8907
    13.9711  15.1897

          k =-0.2500 0.4500 0.2500 (  5073 PWs)   bands (ev):

   -46.1194 -22.4891 -22.3881 -22.3880  -6.4075  -6.0490  -6.0331  -5.0417
    -5.0154  -4.8943  -4.8397  -4.7898   3.2930   6.0536   6.1115   6.5635
     7.3517   7.3631   8.6332   9.4808   9.6188   9.7820  13.3500  14.0440
    14.1714  15.4662

          k = 0.3500 0.2500 0.3500 (  5057 PWs)   bands (ev):

   -46.1193 -22.4598 -22.4053 -22.4052  -6.4425  -6.0591  -6.0005  -5.0242
    -5.0106  -4.8748  -4.7891  -4.7871   3.3822   6.1168   6.1338   6.4242
     6.9009   7.2916   8.5283   9.5581   9.5889   9.9840  13.5152  13.8622
    14.0740  15.5292

          k =-0.2500 0.4500 0.3500 (  5063 PWs)   bands (ev):

   -46.1190 -22.4883 -22.4047 -22.3874  -6.3423  -6.0546  -6.0256  -5.0261
    -4.9930  -4.8605  -4.8041  -4.7144   3.3784   5.8676   6.1040   6.2513
     6.7520   7.3371   8.1530   9.5270   9.7015  10.0075  13.6488  14.0337
    14.2411  15.8820

          k = 0.4500 0.2500 0.3500 (  5063 PWs)   bands (ev):

   -46.1190 -22.4593 -22.4156 -22.4048  -6.4199  -6.0470  -5.9764  -5.0189
    -4.9957  -4.8277  -4.7918  -4.7579   3.3857   5.9901   6.1259   6.1871
     6.7727   7.2970   8.1656   9.5813   9.6020  10.1049  13.6904  13.9118
    14.2156  15.8859

          k = 0.4500 0.2500 0.4500 (  5070 PWs)   bands (ev):

   -46.1188 -22.4589 -22.4151 -22.4151  -6.4188  -5.9945  -5.9843  -5.0125
    -4.9784  -4.7887  -4.7762  -4.7219   3.4152   5.9729   6.0079   6.0726
     6.5278   7.2686   7.7335   9.6155   9.6187  10.2751  13.9062  13.9605
    14.2923  16.2190

          k =-0.3500 0.4500 0.3500 (  5056 PWs)   bands (ev):

   -46.1187 -22.4875 -22.4041 -22.4040  -6.2288  -6.0936  -6.0810  -5.0015
    -4.9813  -4.7856  -4.7100  -4.6729   3.6656   5.6043   5.8272   6.0455
     6.6302   6.8441   7.3981   9.8959   9.9780  10.0397  13.8582  14.1101
    14.2363  16.2914

          k = 0.4500 0.3500 0.4500 (  5051 PWs)   bands (ev):

   -46.1185 -22.4760 -22.4144 -22.4144  -6.2693  -6.0670  -6.0567  -4.9848
    -4.9759  -4.7017  -4.6678  -4.6676   3.8734   5.5674   5.5868   5.9801
     6.5238   6.6812   6.8070   9.9853   9.9935  10.2663  14.0656  14.1221
    14.2862  16.6666

     the Fermi energy is    10.4009 ev

!    total energy              =    -364.95908992 Ry
     Harris-Foulkes estimate   =    -364.95908992 Ry
     estimated scf accuracy    <          3.0E-11 Ry

     The total energy is the sum of the following terms:

     one-electron contribution =     -83.32441078 Ry
     hartree contribution      =      71.06395508 Ry
     xc contribution           =     -85.82626221 Ry
     ewald contribution        =    -266.87854176 Ry
     smearing contrib. (-TS)   =       0.00616975 Ry

     convergence has been achieved in   8 iterations

     Forces acting on atoms (cartesian axes, Ry/au):

     atom    1 type  1   force =     0.00000000    0.01324765    0.00000000
     atom    2 type  2   force =     0.00000000   -0.01288933    0.00000000
     atom    3 type  3   force =     0.00000000   -0.00000049    0.00000000
     atom    4 type  3   force =     0.00000000   -0.00035734    0.00000000
     atom    5 type  3   force =     0.00000000   -0.00000049    0.00000000

     Total force =     0.000357     Total SCF correction =     0.000009


     Computing stress (Cartesian axis) and pressure

          total   stress  (Ry/bohr**3)                   (kbar)     P=   12.29
   0.00000223   0.00000000   0.00000000          0.33      0.00      0.00
   0.00000000   0.00024611   0.00000000          0.00     36.20      0.00
   0.00000000   0.00000000   0.00000223          0.00      0.00      0.33


     bfgs converged in  14 scf cycles and  13 bfgs steps
     (criteria: energy <  1.0E-04 Ry, force <  1.0E-03 Ry/Bohr)

     End of BFGS Geometry Optimization

     Final energy   =    -364.9590899216 Ry
Begin final coordinates

ATOMIC_POSITIONS (crystal)
Pb       0.000000000   0.000000000   0.000000000    0   0   0
Ti       0.500000000   0.510000000   0.500000000    0   0   0
O        0.500000000   0.463745261   0.000000000
O        0.500000000  -0.031177467   0.500000000
O        0.000000000   0.463745261   0.500000000
End final coordinates



     Writing output data file PbTiO3.save/
 
     init_run     :      9.64s CPU     10.34s WALL (       1 calls)
     electrons    :   2801.33s CPU   2940.19s WALL (      14 calls)
     update_pot   :      3.73s CPU      3.94s WALL (      13 calls)
     forces       :     35.54s CPU     43.20s WALL (      14 calls)
     stress       :    156.33s CPU    176.35s WALL (      14 calls)

     Called by init_run:
     wfcinit      :      7.20s CPU      7.29s WALL (       1 calls)
     potinit      :      0.23s CPU      0.26s WALL (       1 calls)
     hinit0       :      1.34s CPU      1.37s WALL (       1 calls)

     Called by electrons:
     c_bands      :   2204.62s CPU   2220.73s WALL (     127 calls)
     sum_band     :    477.13s CPU    535.72s WALL (     127 calls)
     v_of_rho     :     27.91s CPU     29.34s WALL (     135 calls)
     newd         :    102.24s CPU    171.27s WALL (     135 calls)
     mix_rho      :      1.66s CPU      1.82s WALL (     127 calls)

     Called by c_bands:
     init_us_2    :     63.46s CPU     63.77s WALL (   21225 calls)
     cegterg      :   2027.30s CPU   2042.37s WALL (    9525 calls)

     Called by sum_band:
     sum_band:bec :      0.17s CPU      0.17s WALL (    9525 calls)
     addusdens    :    113.65s CPU    170.48s WALL (     127 calls)

     Called by *egterg:
     h_psi        :   1703.77s CPU   1707.91s WALL (   40452 calls)
     s_psi        :     53.39s CPU     53.64s WALL (   40452 calls)
     g_psi        :     19.50s CPU     19.57s WALL (   30852 calls)
     cdiaghg      :     53.86s CPU     62.68s WALL (   38952 calls)

     Called by h_psi:
     h_psi:pot    :   1697.04s CPU   1700.88s WALL (   40452 calls)
     h_psi:calbec :     52.78s CPU     52.92s WALL (   40452 calls)
     vloc_psi     :   1590.39s CPU   1594.01s WALL (   40452 calls)
     add_vuspsi   :     53.64s CPU     53.76s WALL (   40452 calls)

     General routines
     calbec       :     80.60s CPU     80.80s WALL (   55227 calls)
     fft          :      7.06s CPU      7.09s WALL (    2096 calls)
     ffts         :      0.28s CPU      0.29s WALL (     262 calls)
     fftw         :   1717.09s CPU   1720.98s WALL ( 1587198 calls)
     interpolate  :      0.75s CPU      0.80s WALL (     135 calls)
 
     Parallel routines
 
     PWSCF        :  50m17.77s CPU  53m14.72s WALL

 
   This run was terminated on:  12:21:12  13May2020            

=------------------------------------------------------------------------------=
   JOB DONE.
=------------------------------------------------------------------------------=
