
     Program PWSCF v.6.4.1 starts on 14May2020 at 23:35:26 

     This program is part of the open-source Quantum ESPRESSO suite
     for quantum simulation of materials; please cite
         "P. Giannozzi et al., J. Phys.:Condens. Matter 21 395502 (2009);
         "P. Giannozzi et al., J. Phys.:Condens. Matter 29 465901 (2017);
          URL http://www.quantum-espresso.org", 
     in publications or presentations arising from this work. More details at
     http://www.quantum-espresso.org/quote

     Parallel version (MPI), running on     1 processors

     MPI processes distributed on     1 nodes
     Reading input from PTO_7.65_10_0.548.pw.in
Warning: card  &CELL ignored
Warning: card   CELL_DYNAMICS = 'BFGS', ignored
Warning: card  / ignored

     Current dimensions of program PWSCF are:
     Max number of different atomic species (ntypx) = 10
     Max number of k-points (npk) =  40000
     Max angular momentum in pseudopotentials (lmaxx) =  3
     Message from routine read_upf::
     Pseudo file Pb.pbe-dn-rrkjus_psl.0.2.2.UPF has been fixed on the fly.
To avoid this message in the future, permanently fix 
 your pseudo files following these instructions: 
https://gitlab.com/QEF/q-e/blob/master/upftools/how_to_fix_upf.md
     Message from routine read_upf::
     Pseudo file O.pbe-n-rrkjus_psl.0.1.UPF has been fixed on the fly.
To avoid this message in the future, permanently fix 
 your pseudo files following these instructions: 
https://gitlab.com/QEF/q-e/blob/master/upftools/how_to_fix_upf.md
               file Pb.pbe-dn-rrkjus_psl.0.2.2.UPF: wavefunction(s)  6S renormalized

     Subspace diagonalization in iterative solution of the eigenvalue problem:
     a serial algorithm will be used


     G-vector sticks info
     --------------------
     sticks:   dense  smooth     PW     G-vecs:    dense   smooth      PW
     Sum        3721    1481    429               170901    43387    6667



     bravais-lattice index     =            1
     lattice parameter (alat)  =       7.6500  a.u.
     unit-cell volume          =     447.6971 (a.u.)^3
     number of atoms/cell      =            5
     number of atomic types    =            3
     number of electrons       =        44.00
     number of Kohn-Sham states=           26
     kinetic-energy cutoff     =      80.0000  Ry
     charge density cutoff     =     800.0000  Ry
     convergence threshold     =      1.0E-08
     mixing beta               =       0.7000
     number of iterations used =            8  plain     mixing
     Exchange-correlation      = PBE ( 1  4  3  4 0 0)
     nstep                     =           50


     celldm(1)=   7.650000  celldm(2)=   0.000000  celldm(3)=   0.000000
     celldm(4)=   0.000000  celldm(5)=   0.000000  celldm(6)=   0.000000

     crystal axes: (cart. coord. in units of alat)
               a(1) = (   1.000000   0.000000   0.000000 )  
               a(2) = (   0.000000   1.000000   0.000000 )  
               a(3) = (   0.000000   0.000000   1.000000 )  

     reciprocal axes: (cart. coord. in units 2 pi/alat)
               b(1) = (  1.000000  0.000000  0.000000 )  
               b(2) = (  0.000000  1.000000  0.000000 )  
               b(3) = (  0.000000  0.000000  1.000000 )  


     PseudoPot. # 1 for Pb read from file:
     ./Pb.pbe-dn-rrkjus_psl.0.2.2.UPF
     MD5 check sum: 7afc420059c37d6888fc09c0f121e83f
     Pseudo is Ultrasoft + core correction, Zval = 14.0
     Generated using "atomic" code by A. Dal Corso v.5.0.2 svn rev. 9415
     Using radial grid of 1281 points,  6 beta functions with: 
                l(1) =   0
                l(2) =   0
                l(3) =   1
                l(4) =   1
                l(5) =   2
                l(6) =   2
     Q(r) pseudized with 0 coefficients 


     PseudoPot. # 2 for Ti read from file:
     ./Ti.pbe-sp-van_ak.UPF
     MD5 check sum: 8e4df49b7f0d34bbd5052bf3f5ea0213
     Pseudo is Ultrasoft, Zval = 12.0
     Generated by new atomic code, or converted to UPF format
     Using radial grid of  851 points,  6 beta functions with: 
                l(1) =   0
                l(2) =   0
                l(3) =   1
                l(4) =   1
                l(5) =   2
                l(6) =   2
     Q(r) pseudized with  8 coefficients,  rinner =    1.000   1.000   1.000
                                                       1.000   1.000

     PseudoPot. # 3 for O  read from file:
     ./O.pbe-n-rrkjus_psl.0.1.UPF
     MD5 check sum: e057bbcf3229fb5d8c36c0c92f9568b4
     Pseudo is Ultrasoft + core correction, Zval =  6.0
     Generated using "atomic" code by A. Dal Corso v.5.0.2 svn rev. 9415
     Using radial grid of 1095 points,  4 beta functions with: 
                l(1) =   0
                l(2) =   0
                l(3) =   1
                l(4) =   1
     Q(r) pseudized with 0 coefficients 


     atomic species   valence    mass     pseudopotential
        Pb            14.00   207.20000     Pb( 1.00)
        Ti            12.00    47.87000     Ti( 1.00)
        O              6.00    16.00000     O ( 1.00)

      8 Sym. Ops. (no inversion) found



   Cartesian axes

     site n.     atom                  positions (alat units)
         1           Pb  tau(   1) = (   0.0000000   0.0000000   0.0000000  )
         2           Ti  tau(   2) = (   0.5000000   0.5480000   0.5000000  )
         3           O   tau(   3) = (   0.5000000   0.5000000   0.0000000  )
         4           O   tau(   4) = (   0.5000000   0.0000000   0.5000000  )
         5           O   tau(   5) = (   0.0000000   0.5000000   0.5000000  )

     number of k points=    75  Marzari-Vanderbilt smearing, width (Ry)=  0.0250
                       cart. coord. in units 2pi/alat
        k(    1) = (   0.0500000   0.0500000   0.0500000), wk =   0.0160000
        k(    2) = (   0.0500000   0.0500000   0.1500000), wk =   0.0320000
        k(    3) = (   0.0500000   0.0500000   0.2500000), wk =   0.0320000
        k(    4) = (   0.0500000   0.0500000   0.3500000), wk =   0.0320000
        k(    5) = (   0.0500000   0.0500000   0.4500000), wk =   0.0320000
        k(    6) = (   0.0500000   0.1500000   0.1500000), wk =   0.0320000
        k(    7) = (   0.0500000   0.1500000   0.2500000), wk =   0.0320000
        k(    8) = (   0.0500000   0.1500000   0.3500000), wk =   0.0320000
        k(    9) = (   0.0500000   0.1500000   0.4500000), wk =   0.0320000
        k(   10) = (   0.0500000   0.2500000   0.2500000), wk =   0.0320000
        k(   11) = (   0.0500000   0.2500000   0.3500000), wk =   0.0320000
        k(   12) = (   0.0500000   0.2500000   0.4500000), wk =   0.0320000
        k(   13) = (   0.0500000   0.3500000   0.3500000), wk =   0.0320000
        k(   14) = (   0.0500000   0.3500000   0.4500000), wk =   0.0320000
        k(   15) = (   0.0500000   0.4500000   0.4500000), wk =   0.0320000
        k(   16) = (   0.1500000   0.1500000   0.1500000), wk =   0.0160000
        k(   17) = (   0.1500000   0.1500000   0.2500000), wk =   0.0320000
        k(   18) = (   0.1500000   0.1500000   0.3500000), wk =   0.0320000
        k(   19) = (   0.1500000   0.1500000   0.4500000), wk =   0.0320000
        k(   20) = (   0.1500000   0.2500000   0.2500000), wk =   0.0320000
        k(   21) = (   0.1500000   0.2500000   0.3500000), wk =   0.0320000
        k(   22) = (   0.1500000   0.2500000   0.4500000), wk =   0.0320000
        k(   23) = (   0.1500000   0.3500000   0.3500000), wk =   0.0320000
        k(   24) = (   0.1500000   0.3500000   0.4500000), wk =   0.0320000
        k(   25) = (   0.1500000   0.4500000   0.4500000), wk =   0.0320000
        k(   26) = (   0.2500000   0.2500000   0.2500000), wk =   0.0160000
        k(   27) = (   0.2500000   0.2500000   0.3500000), wk =   0.0320000
        k(   28) = (   0.2500000   0.2500000   0.4500000), wk =   0.0320000
        k(   29) = (   0.2500000   0.3500000   0.3500000), wk =   0.0320000
        k(   30) = (   0.2500000   0.3500000   0.4500000), wk =   0.0320000
        k(   31) = (   0.2500000   0.4500000   0.4500000), wk =   0.0320000
        k(   32) = (   0.3500000   0.3500000   0.3500000), wk =   0.0160000
        k(   33) = (   0.3500000   0.3500000   0.4500000), wk =   0.0320000
        k(   34) = (   0.3500000   0.4500000   0.4500000), wk =   0.0320000
        k(   35) = (   0.4500000   0.4500000   0.4500000), wk =   0.0160000
        k(   36) = (  -0.0500000   0.1500000   0.0500000), wk =   0.0160000
        k(   37) = (  -0.0500000   0.2500000   0.0500000), wk =   0.0160000
        k(   38) = (  -0.0500000   0.3500000   0.0500000), wk =   0.0160000
        k(   39) = (  -0.0500000   0.4500000   0.0500000), wk =   0.0160000
        k(   40) = (   0.1500000   0.0500000   0.1500000), wk =   0.0160000
        k(   41) = (  -0.0500000   0.2500000   0.1500000), wk =   0.0320000
        k(   42) = (   0.2500000   0.0500000   0.1500000), wk =   0.0320000
        k(   43) = (  -0.0500000   0.3500000   0.1500000), wk =   0.0320000
        k(   44) = (   0.3500000   0.0500000   0.1500000), wk =   0.0320000
        k(   45) = (  -0.0500000   0.4500000   0.1500000), wk =   0.0320000
        k(   46) = (   0.4500000   0.0500000   0.1500000), wk =   0.0320000
        k(   47) = (   0.2500000   0.0500000   0.2500000), wk =   0.0160000
        k(   48) = (  -0.0500000   0.3500000   0.2500000), wk =   0.0320000
        k(   49) = (   0.3500000   0.0500000   0.2500000), wk =   0.0320000
        k(   50) = (  -0.0500000   0.4500000   0.2500000), wk =   0.0320000
        k(   51) = (   0.4500000   0.0500000   0.2500000), wk =   0.0320000
        k(   52) = (   0.3500000   0.0500000   0.3500000), wk =   0.0160000
        k(   53) = (  -0.0500000   0.4500000   0.3500000), wk =   0.0320000
        k(   54) = (   0.4500000   0.0500000   0.3500000), wk =   0.0320000
        k(   55) = (   0.4500000   0.0500000   0.4500000), wk =   0.0160000
        k(   56) = (  -0.1500000   0.2500000   0.1500000), wk =   0.0160000
        k(   57) = (  -0.1500000   0.3500000   0.1500000), wk =   0.0160000
        k(   58) = (  -0.1500000   0.4500000   0.1500000), wk =   0.0160000
        k(   59) = (   0.2500000   0.1500000   0.2500000), wk =   0.0160000
        k(   60) = (  -0.1500000   0.3500000   0.2500000), wk =   0.0320000
        k(   61) = (   0.3500000   0.1500000   0.2500000), wk =   0.0320000
        k(   62) = (  -0.1500000   0.4500000   0.2500000), wk =   0.0320000
        k(   63) = (   0.4500000   0.1500000   0.2500000), wk =   0.0320000
        k(   64) = (   0.3500000   0.1500000   0.3500000), wk =   0.0160000
        k(   65) = (  -0.1500000   0.4500000   0.3500000), wk =   0.0320000
        k(   66) = (   0.4500000   0.1500000   0.3500000), wk =   0.0320000
        k(   67) = (   0.4500000   0.1500000   0.4500000), wk =   0.0160000
        k(   68) = (  -0.2500000   0.3500000   0.2500000), wk =   0.0160000
        k(   69) = (  -0.2500000   0.4500000   0.2500000), wk =   0.0160000
        k(   70) = (   0.3500000   0.2500000   0.3500000), wk =   0.0160000
        k(   71) = (  -0.2500000   0.4500000   0.3500000), wk =   0.0320000
        k(   72) = (   0.4500000   0.2500000   0.3500000), wk =   0.0320000
        k(   73) = (   0.4500000   0.2500000   0.4500000), wk =   0.0160000
        k(   74) = (  -0.3500000   0.4500000   0.3500000), wk =   0.0160000
        k(   75) = (   0.4500000   0.3500000   0.4500000), wk =   0.0160000

     Dense  grid:   170901 G-vectors     FFT dimensions: (  72,  72,  72)

     Smooth grid:    43387 G-vectors     FFT dimensions: (  45,  45,  45)

     Estimated max dynamical RAM per process >     806.66 MB

     Check: negative core charge=   -0.000005

     Initial potential from superposition of free atoms

     starting charge   42.99760, renormalised to   44.00000
     Starting wfcs are   31 randomized atomic wfcs

     total cpu time spent up to now is       16.7 secs

     Self-consistent Calculation

     iteration #  1     ecut=    80.00 Ry     beta= 0.70
     Davidson diagonalization with overlap
     ethr =  1.00E-02,  avg # of iterations =  2.0

     total cpu time spent up to now is       48.1 secs

     total energy              =    -364.36815781 Ry
     Harris-Foulkes estimate   =    -365.28163109 Ry
     estimated scf accuracy    <       1.14415559 Ry

     iteration #  2     ecut=    80.00 Ry     beta= 0.70
     Davidson diagonalization with overlap
     ethr =  2.60E-03,  avg # of iterations =  4.1

     total cpu time spent up to now is       95.5 secs

     total energy              =    -362.83448927 Ry
     Harris-Foulkes estimate   =    -365.96908146 Ry
     estimated scf accuracy    <      13.67849705 Ry

     iteration #  3     ecut=    80.00 Ry     beta= 0.70
     Davidson diagonalization with overlap
     ethr =  2.60E-03,  avg # of iterations =  5.0

     total cpu time spent up to now is      144.6 secs

     total energy              =    -364.92366140 Ry
     Harris-Foulkes estimate   =    -365.11492080 Ry
     estimated scf accuracy    <       0.51970908 Ry

     iteration #  4     ecut=    80.00 Ry     beta= 0.70
     Davidson diagonalization with overlap
     ethr =  1.18E-03,  avg # of iterations =  2.1

     total cpu time spent up to now is      174.4 secs

     total energy              =    -364.91361843 Ry
     Harris-Foulkes estimate   =    -364.96735020 Ry
     estimated scf accuracy    <       0.22043056 Ry

     iteration #  5     ecut=    80.00 Ry     beta= 0.70
     Davidson diagonalization with overlap
     ethr =  5.01E-04,  avg # of iterations =  4.7

     total cpu time spent up to now is      212.7 secs

     total energy              =    -364.94711340 Ry
     Harris-Foulkes estimate   =    -364.94852144 Ry
     estimated scf accuracy    <       0.00463276 Ry

     iteration #  6     ecut=    80.00 Ry     beta= 0.70
     Davidson diagonalization with overlap
     ethr =  1.05E-05,  avg # of iterations =  4.3

     total cpu time spent up to now is      253.8 secs

     total energy              =    -364.94817824 Ry
     Harris-Foulkes estimate   =    -364.94840146 Ry
     estimated scf accuracy    <       0.00054094 Ry

     iteration #  7     ecut=    80.00 Ry     beta= 0.70
     Davidson diagonalization with overlap
     ethr =  1.23E-06,  avg # of iterations =  3.6

     total cpu time spent up to now is      295.6 secs

     total energy              =    -364.94821938 Ry
     Harris-Foulkes estimate   =    -364.94841546 Ry
     estimated scf accuracy    <       0.00058057 Ry

     iteration #  8     ecut=    80.00 Ry     beta= 0.70
     Davidson diagonalization with overlap
     ethr =  1.23E-06,  avg # of iterations =  2.7

     total cpu time spent up to now is      330.1 secs

     total energy              =    -364.94832173 Ry
     Harris-Foulkes estimate   =    -364.94833224 Ry
     estimated scf accuracy    <       0.00004421 Ry

     iteration #  9     ecut=    80.00 Ry     beta= 0.70
     Davidson diagonalization with overlap
     ethr =  1.00E-07,  avg # of iterations =  2.7

     total cpu time spent up to now is      366.3 secs

     total energy              =    -364.94832336 Ry
     Harris-Foulkes estimate   =    -364.94833175 Ry
     estimated scf accuracy    <       0.00002851 Ry

     iteration # 10     ecut=    80.00 Ry     beta= 0.70
     Davidson diagonalization with overlap
     ethr =  6.48E-08,  avg # of iterations =  1.5

     total cpu time spent up to now is      395.6 secs

     total energy              =    -364.94832292 Ry
     Harris-Foulkes estimate   =    -364.94832511 Ry
     estimated scf accuracy    <       0.00000542 Ry

     iteration # 11     ecut=    80.00 Ry     beta= 0.70
     Davidson diagonalization with overlap
     ethr =  1.23E-08,  avg # of iterations =  3.0

     total cpu time spent up to now is      434.9 secs

     total energy              =    -364.94832467 Ry
     Harris-Foulkes estimate   =    -364.94832482 Ry
     estimated scf accuracy    <       0.00000053 Ry

     iteration # 12     ecut=    80.00 Ry     beta= 0.70
     Davidson diagonalization with overlap
     ethr =  1.20E-09,  avg # of iterations =  2.2

     total cpu time spent up to now is      465.7 secs

     total energy              =    -364.94832469 Ry
     Harris-Foulkes estimate   =    -364.94832473 Ry
     estimated scf accuracy    <       0.00000008 Ry

     iteration # 13     ecut=    80.00 Ry     beta= 0.70
     Davidson diagonalization with overlap
     ethr =  1.88E-10,  avg # of iterations =  3.5

     total cpu time spent up to now is      507.3 secs

     total energy              =    -364.94832473 Ry
     Harris-Foulkes estimate   =    -364.94832473 Ry
     estimated scf accuracy    <       0.00000001 Ry

     iteration # 14     ecut=    80.00 Ry     beta= 0.70
     Davidson diagonalization with overlap
     ethr =  2.57E-11,  avg # of iterations =  1.6

     total cpu time spent up to now is      537.1 secs

     End of self-consistent calculation

          k = 0.0500 0.0500 0.0500 (  5428 PWs)   bands (ev):

   -47.2481 -23.5336 -23.4555 -23.4555  -7.8758  -7.0223  -6.9038  -6.1400
    -6.1231  -6.1229  -5.9809  -5.9542   3.3792   6.0701   6.1082   6.2141
     7.9185   7.9435   8.3366   8.3445   8.5937   8.6333  11.4261  11.8715
    11.8815  13.3536

          k = 0.0500 0.0500 0.1500 (  5403 PWs)   bands (ev):

   -47.2480 -23.5333 -23.4632 -23.4552  -7.8070  -6.9908  -6.8799  -6.1456
    -6.1289  -6.1226  -6.0071  -5.9574   3.1535   6.1177   6.1858   6.3431
     7.7109   7.9068   8.2130   8.3364   8.4737   8.5921  11.7124  11.8816
    11.9497  13.5489

          k = 0.0500 0.0500 0.2500 (  5408 PWs)   bands (ev):

   -47.2477 -23.5329 -23.4756 -23.4548  -7.6922  -6.9344  -6.8417  -6.1548
    -6.1383  -6.1220  -6.0590  -5.9582   2.8553   6.0858   6.2985   6.4069
     7.5933   7.7237   8.1194   8.2557   8.3987   8.6340  11.8824  12.1292
    12.2352  13.5583

          k = 0.0500 0.0500 0.3500 (  5405 PWs)   bands (ev):

   -47.2475 -23.5324 -23.4879 -23.4544  -7.5726  -6.8680  -6.8058  -6.1673
    -6.1496  -6.1214  -6.1142  -5.9603   2.6113   5.7700   6.4843   6.5858
     7.3521   7.4714   8.0781   8.1744   8.4868   8.9193  11.8834  12.5040
    12.5909  13.0363

          k = 0.0500 0.0500 0.4500 (  5400 PWs)   bands (ev):

   -47.2474 -23.5321 -23.4956 -23.4541  -7.4958  -6.8160  -6.7886  -6.1887
    -6.1595  -6.1376  -6.1210  -5.9629   2.4805   5.5259   6.6988   6.8349
     7.0721   7.1588   8.0965   8.1274   8.5412   9.2819  11.8681  12.3866
    12.7251  12.8387

          k = 0.0500 0.1500 0.1500 (  5403 PWs)   bands (ev):

   -47.2478 -23.5413 -23.4629 -23.4549  -7.7247  -6.9773  -6.8540  -6.1456
    -6.1367  -6.1276  -6.0004  -5.9795   2.9786   6.0743   6.1809   6.4677
     7.4997   7.7298   8.0745   8.3887   8.4388   8.6819  11.7130  12.1028
    12.1558  13.6398

          k = 0.0500 0.1500 0.2500 (  5394 PWs)   bands (ev):

   -47.2476 -23.5408 -23.4753 -23.4545  -7.6141  -6.9275  -6.8251  -6.1569
    -6.1443  -6.1272  -6.0313  -5.9736   2.7386   6.0196   6.2948   6.4438
     7.3491   7.5796   7.9718   8.1816   8.4338   8.7963  12.0823  12.1493
    12.3896  13.6959

          k = 0.0500 0.1500 0.3500 (  5400 PWs)   bands (ev):

   -47.2474 -23.5403 -23.4876 -23.4541  -7.5007  -6.8737  -6.7950  -6.1710
    -6.1519  -6.1270  -6.0569  -5.9749   2.5313   5.7598   6.4025   6.5441
     7.1241   7.4426   7.8920   8.1748   8.4139   8.9709  12.0981  12.4988
    12.6990  13.1889

          k = 0.0500 0.1500 0.4500 (  5407 PWs)   bands (ev):

   -47.2472 -23.5400 -23.4952 -23.4538  -7.4291  -6.8382  -6.7752  -6.1831
    -6.1593  -6.1268  -6.0648  -5.9809   2.4168   5.5275   6.5471   6.6864
     6.9372   7.2134   7.9182   8.2502   8.3829   9.1079  12.0806  12.7113
    12.7540  12.9215

          k = 0.0500 0.2500 0.2500 (  5400 PWs)   bands (ev):

   -47.2474 -23.5535 -23.4747 -23.4540  -7.4848  -6.9229  -6.7871  -6.1592
    -6.1491  -6.1318  -6.0150  -5.9842   2.5590   5.8926   6.2517   6.4061
     7.1374   7.3233   7.7682   8.1761   8.5844   8.9168  12.1119  12.4523
    12.6361  13.6847

          k = 0.0500 0.2500 0.3500 (  5414 PWs)   bands (ev):

   -47.2471 -23.5530 -23.4870 -23.4536  -7.3893  -6.8912  -6.7492  -6.1676
    -6.1510  -6.1333  -6.0250  -5.9661   2.4026   5.7212   6.1463   6.5122
     6.9604   7.2766   7.6943   7.9824   8.6615   8.9046  12.4182  12.5033
    12.8686  13.4562

          k = 0.0500 0.2500 0.4500 (  5407 PWs)   bands (ev):

   -47.2470 -23.5527 -23.4946 -23.4533  -7.3338  -6.8721  -6.7171  -6.1724
    -6.1576  -6.1347  -6.0190  -5.9641   2.3123   5.5167   6.1735   6.5437
     6.8512   7.3151   7.6018   7.9865   8.6372   8.8776  12.4284  12.6979
    13.0464  13.2924

          k = 0.0500 0.3500 0.3500 (  5407 PWs)   bands (ev):

   -47.2469 -23.5657 -23.4865 -23.4531  -7.2945  -6.8831  -6.6933  -6.1668
    -6.1542  -6.1328  -6.0511  -5.9132   2.2760   5.5284   5.9284   6.5066
     6.9081   7.1255   7.5776   7.9382   8.5329   9.0242  12.4608  12.7790
    13.0442  13.7382

          k = 0.0500 0.3500 0.4500 (  5403 PWs)   bands (ev):

   -47.2467 -23.5653 -23.4940 -23.4528  -7.2699  -6.8565  -6.6503  -6.1674
    -6.1563  -6.1366  -6.0586  -5.8833   2.2072   5.4220   5.8078   6.5896
     6.7269   7.3071   7.5085   7.8045   8.3054   9.1039  12.6728  12.7749
    13.1921  13.7913

          k = 0.0500 0.4500 0.4500 (  5392 PWs)   bands (ev):

   -47.2466 -23.5731 -23.4937 -23.4525  -7.2520  -6.8173  -6.6031  -6.1703
    -6.1557  -6.1334  -6.0877  -5.8381   2.1422   5.2413   5.7141   6.5680
     6.7356   7.2616   7.5463   7.7366   7.9819   9.2656  12.6583  12.9836
    13.2925  14.0776

          k = 0.1500 0.1500 0.1500 (  5404 PWs)   bands (ev):

   -47.2477 -23.5410 -23.4627 -23.4625  -7.6616  -6.9548  -6.8363  -6.1513
    -6.1414  -6.1263  -6.0022  -5.9788   2.8592   6.0646   6.1041   6.5577
     7.3588   7.4980   8.0350   8.4506   8.5401   8.5691  11.9142  12.1349
    12.1731  14.0931

          k = 0.1500 0.1500 0.2500 (  5407 PWs)   bands (ev):

   -47.2474 -23.5405 -23.4750 -23.4621  -7.5598  -6.9154  -6.8072  -6.1615
    -6.1428  -6.1223  -6.0166  -5.9742   2.6762   5.9977   6.1190   6.4543
     7.1522   7.2943   8.0605   8.3386   8.5278   8.7183  12.1004  12.2567
    12.3866  13.8687

          k = 0.1500 0.1500 0.3500 (  5411 PWs)   bands (ev):

   -47.2472 -23.5400 -23.4873 -23.4617  -7.4596  -6.8710  -6.7771  -6.1712
    -6.1370  -6.1154  -6.0366  -5.9752   2.5072   5.7620   6.1507   6.4029
     6.9348   7.3298   7.8643   8.3630   8.5351   8.8659  12.0526  12.5484
    12.6906  13.4011

          k = 0.1500 0.1500 0.4500 (  5406 PWs)   bands (ev):

   -47.2471 -23.5397 -23.4949 -23.4614  -7.3994  -6.8405  -6.7571  -6.1753
    -6.1327  -6.1077  -6.0498  -5.9819   2.4101   5.5313   6.1751   6.4563
     6.8160   7.4387   7.6424   8.4420   8.5114   8.9296  11.9947  12.7433
    12.9040  13.1752

          k = 0.1500 0.2500 0.2500 (  5399 PWs)   bands (ev):

   -47.2472 -23.5532 -23.4744 -23.4617  -7.4296  -6.9165  -6.7929  -6.1634
    -6.1511  -6.1086  -5.9974  -5.9675   2.5560   5.8640   5.9993   6.2942
     6.8939   7.1073   7.9859   8.3895   8.6244   8.7991  12.1457  12.4356
    12.5974  13.6936

          k = 0.1500 0.2500 0.3500 (  5405 PWs)   bands (ev):

   -47.2470 -23.5527 -23.4867 -23.4612  -7.3415  -6.9003  -6.7610  -6.1658
    -6.1419  -6.0986  -5.9983  -5.9507   2.4450   5.7085   5.9799   6.1237
     6.6038   7.1394   8.0116   8.2296   8.6379   8.8268  12.2743  12.5326
    12.8171  13.6482

          k = 0.1500 0.2500 0.4500 (  5414 PWs)   bands (ev):

   -47.2468 -23.5524 -23.4943 -23.4609  -7.2918  -6.8944  -6.7305  -6.1648
    -6.1337  -6.0949  -5.9915  -5.9500   2.3768   5.5156   5.9726   6.0826
     6.4933   7.2329   7.8517   8.3032   8.5238   8.8397  12.2844  12.6938
    12.9952  13.6755

          k = 0.1500 0.3500 0.3500 (  5413 PWs)   bands (ev):

   -47.2467 -23.5653 -23.4862 -23.4607  -7.2360  -6.9099  -6.7415  -6.1638
    -6.1361  -6.0778  -6.0056  -5.8973   2.3720   5.5122   5.8697   5.9306
     6.3681   7.1012   7.8422   8.2433   8.4824   8.9998  12.3899  12.6969
    12.9714  13.9289

          k = 0.1500 0.3500 0.4500 (  5415 PWs)   bands (ev):

   -47.2466 -23.5650 -23.4937 -23.4604  -7.2113  -6.9047  -6.7040  -6.1603
    -6.1203  -6.0811  -6.0039  -5.8679   2.3316   5.4124   5.7555   5.9592
     6.1668   7.1696   7.7323   8.1745   8.3138   9.0978  12.6035  12.6906
    13.1081  14.1343

          k = 0.1500 0.4500 0.4500 (  5405 PWs)   bands (ev):

   -47.2464 -23.5728 -23.4934 -23.4601  -7.1875  -6.8785  -6.6883  -6.1586
    -6.1048  -6.0673  -6.0212  -5.8215   2.2979   5.2295   5.6799   5.9316
     6.0818   7.1668   7.4559   8.0826   8.2973   9.2508  12.6455  12.8739
    13.2004  14.4536

          k = 0.2500 0.2500 0.2500 (  5395 PWs)   bands (ev):

   -47.2470 -23.5527 -23.4741 -23.4739  -7.3488  -6.9028  -6.7955  -6.1555
    -6.1508  -6.0792  -5.9746  -5.9432   2.5387   5.7397   5.8032   6.1381
     6.6612   6.7121   8.0908   8.5693   8.6455   8.7848  12.1604  12.5647
    12.5760  13.7205

          k = 0.2500 0.2500 0.3500 (  5411 PWs)   bands (ev):

   -47.2467 -23.5522 -23.4862 -23.4735  -7.2830  -6.8913  -6.7783  -6.1508
    -6.1382  -6.0447  -5.9565  -5.9263   2.5067   5.6183   5.6758   5.8729
     6.3889   6.6702   7.9144   8.5609   8.6682   8.9125  12.2327  12.6161
    12.7997  13.9022

          k = 0.2500 0.2500 0.4500 (  5411 PWs)   bands (ev):

   -47.2466 -23.5519 -23.4938 -23.4732  -7.2517  -6.8897  -6.7518  -6.1475
    -6.1285  -6.0130  -5.9495  -5.9229   2.4806   5.4970   5.5733   5.7531
     6.3100   6.7086   7.6903   8.5895   8.6281   8.9674  12.3257  12.6967
    12.9743  14.1342

          k = 0.2500 0.3500 0.3500 (  5419 PWs)   bands (ev):

   -47.2465 -23.5648 -23.4857 -23.4730  -7.1579  -6.9310  -6.8041  -6.1461
    -6.1230  -6.0077  -5.9307  -5.8675   2.5391   5.3912   5.5178   5.6637
     6.1128   6.5655   7.4762   8.6354   8.8268   9.0012  12.3675  12.7415
    12.9220  14.2112

          k = 0.2500 0.3500 0.4500 (  5428 PWs)   bands (ev):

   -47.2464 -23.5645 -23.4932 -23.4727  -7.1372  -6.9461  -6.7738  -6.1406
    -6.1105  -5.9837  -5.9152  -5.8389   2.5610   5.3562   5.4259   5.5045
     5.9325   6.5904   7.1360   8.6575   8.8178   9.1038  12.5846  12.7276
    13.0527  14.5333

          k = 0.2500 0.4500 0.4500 (  5427 PWs)   bands (ev):

   -47.2462 -23.5723 -23.4929 -23.4724  -7.0857  -6.9559  -6.7871  -6.1376
    -6.0968  -5.9642  -5.8957  -5.7904   2.6022   5.1718   5.3575   5.4808
     5.7719   6.5583   6.7070   8.6540   8.8629   9.2363  12.7007  12.8532
    13.1373  14.8537

          k = 0.3500 0.3500 0.3500 (  5415 PWs)   bands (ev):

   -47.2463 -23.5643 -23.4852 -23.4851  -7.1229  -6.9155  -6.8440  -6.1276
    -6.1142  -5.9407  -5.8655  -5.8321   2.7212   5.1646   5.2646   5.4900
     6.0426   6.1293   6.8897   8.8929   8.9920   9.1277  12.5180  12.8965
    12.8976  14.5575

          k = 0.3500 0.3500 0.4500 (  5427 PWs)   bands (ev):

   -47.2461 -23.5640 -23.4927 -23.4849  -7.1241  -6.9154  -6.8313  -6.1193
    -6.1062  -5.8953  -5.8351  -5.8057   2.8403   5.0775   5.1250   5.3436
     5.9001   6.0976   6.4396   8.9497   9.0582   9.2348  12.7226  12.8570
    13.0391  14.9174

          k = 0.3500 0.4500 0.4500 (  5435 PWs)   bands (ev):

   -47.2460 -23.5718 -23.4924 -23.4846  -7.0378  -6.9668  -6.8636  -6.1170
    -6.0936  -5.8704  -5.7907  -5.7531   3.0262   4.9210   5.0707   5.1923
     5.7201   5.8776   6.0735   9.0380   9.2122   9.2377  12.8570  12.9608
    13.1067  15.2615

          k = 0.4500 0.4500 0.4500 (  5457 PWs)   bands (ev):

   -47.2458 -23.5714 -23.4921 -23.4921  -7.0677  -6.9135  -6.9014  -6.1055
    -6.0907  -5.8159  -5.7326  -5.7262   3.4455   4.7585   4.8356   5.1012
     5.2049   5.7163   5.8492   9.2095   9.2230   9.3843  13.0133  13.0818
    13.0862  15.5947

          k =-0.0500 0.1500 0.0500 (  5403 PWs)   bands (ev):

   -47.2480 -23.5416 -23.4552 -23.4552  -7.7916  -7.0064  -6.8715  -6.1396
    -6.1298  -6.1278  -5.9874  -5.9799   3.1479   6.1090   6.1200   6.3359
     7.7412   7.7645   8.2038   8.3306   8.6266   8.6591  11.4282  12.0927
    12.1112  13.3562

          k =-0.0500 0.2500 0.0500 (  5408 PWs)   bands (ev):

   -47.2477 -23.5544 -23.4548 -23.4547  -7.6462  -6.9860  -6.8132  -6.1422
    -6.1389  -6.1349  -6.0456  -5.9802   2.8391   6.0261   6.2079   6.3187
     7.4952   7.5224   8.2809   8.2958   8.7057   8.7391  11.4314  12.4339
    12.4609  13.3612

          k =-0.0500 0.3500 0.0500 (  5405 PWs)   bands (ev):

   -47.2475 -23.5671 -23.4543 -23.4543  -7.4837  -6.9776  -6.7433  -6.1636
    -6.1409  -6.1381  -6.1063  -5.9831   2.5833   5.6637   6.3110   6.4156
     7.2667   7.2806   8.2209   8.5366   8.7564   9.0260  11.4336  12.7599
    12.7943  13.1158

          k =-0.0500 0.4500 0.0500 (  5400 PWs)   bands (ev):

   -47.2473 -23.5750 -23.4540 -23.4540  -7.3670  -6.9857  -6.6902  -6.1976
    -6.1439  -6.1378  -6.1329  -5.9866   2.4449   5.3924   6.3897   6.5283
     7.1033   7.1213   8.1819   8.6378   8.7897   9.4016  11.4324  12.4357
    12.9537  12.9974

          k = 0.1500 0.0500 0.1500 (  5403 PWs)   bands (ev):

   -47.2478 -23.5331 -23.4630 -23.4628  -7.7428  -6.9650  -6.8544  -6.1506
    -6.1292  -6.1273  -6.0108  -5.9704   2.9859   6.0767   6.2491   6.4574
     7.5435   7.6952   8.0625   8.3741   8.5332   8.5858  11.8921  11.9582
    11.9839  13.8788

          k =-0.0500 0.2500 0.1500 (  5394 PWs)   bands (ev):

   -47.2476 -23.5541 -23.4624 -23.4545  -7.5840  -6.9603  -6.8073  -6.1517
    -6.1444  -6.1327  -6.0175  -5.9936   2.7282   5.9569   6.2293   6.4270
     7.2567   7.5100   7.9768   8.4157   8.5022   8.8448  11.7119  12.4362
    12.4816  13.6600

          k = 0.2500 0.0500 0.1500 (  5394 PWs)   bands (ev):

   -47.2476 -23.5326 -23.4753 -23.4624  -7.6383  -6.9170  -6.8137  -6.1575
    -6.1359  -6.1273  -6.0388  -5.9759   2.7469   6.0476   6.2817   6.4702
     7.3490   7.4517   8.0116   8.3246   8.5232   8.6924  11.9360  12.2148
    12.2985  13.8937

          k =-0.0500 0.3500 0.1500 (  5400 PWs)   bands (ev):

   -47.2474 -23.5668 -23.4619 -23.4540  -7.4301  -6.9525  -6.7533  -6.1720
    -6.1441  -6.1362  -6.0498  -5.9956   2.5092   5.6366   6.2546   6.4814
     7.0560   7.3050   8.0569   8.4049   8.5656   9.0745  11.7052  12.7502
    12.7997  13.2856

          k = 0.3500 0.0500 0.1500 (  5400 PWs)   bands (ev):

   -47.2474 -23.5321 -23.4876 -23.4620  -7.5341  -6.8550  -6.7767  -6.1687
    -6.1389  -6.1269  -6.0767  -5.9780   2.5395   5.7751   6.3414   6.6038
     7.0934   7.4391   7.7538   8.3745   8.5238   8.9310  11.9168  12.5576
    12.6329  13.2542

          k =-0.0500 0.4500 0.1500 (  5407 PWs)   bands (ev):

   -47.2472 -23.5746 -23.4616 -23.4537  -7.3233  -6.9564  -6.7148  -6.1922
    -6.1435  -6.1399  -6.0611  -6.0024   2.3869   5.3758   6.2806   6.5844
     6.9329   7.1505   8.1599   8.3831   8.6061   9.2502  11.6932  12.7968
    12.9673  13.0140

          k = 0.4500 0.0500 0.1500 (  5407 PWs)   bands (ev):

   -47.2472 -23.5318 -23.4952 -23.4617  -7.4706  -6.7969  -6.7660  -6.1820
    -6.1405  -6.1268  -6.0962  -5.9818   2.4246   5.5318   6.4788   6.6742
     7.0127   7.2734   7.6687   8.3731   8.5528   9.1418  11.8759  12.7714
    12.8025  12.8614

          k = 0.2500 0.0500 0.2500 (  5400 PWs)   bands (ev):

   -47.2474 -23.5321 -23.4749 -23.4746  -7.5567  -6.8771  -6.7676  -6.1558
    -6.1379  -6.1301  -6.0174  -6.0028   2.5796   6.0246   6.1677   6.5080
     7.0597   7.1647   8.0925   8.1249   8.7077   8.7352  12.1452  12.2670
    12.5338  13.8210

          k =-0.0500 0.3500 0.2500 (  5414 PWs)   bands (ev):

   -47.2471 -23.5662 -23.4742 -23.4536  -7.3532  -6.9173  -6.7406  -6.1680
    -6.1517  -6.1334  -6.0305  -5.9686   2.3909   5.5944   6.1819   6.4283
     6.9703   7.2425   7.6426   8.2302   8.6161   9.0051  12.1002  12.7792
    12.8752  13.5394

          k = 0.3500 0.0500 0.2500 (  5414 PWs)   bands (ev):

   -47.2471 -23.5317 -23.4871 -23.4743  -7.4852  -6.8142  -6.7239  -6.1601
    -6.1387  -6.1299  -6.0292  -6.0013   2.4229   5.7792   6.1264   6.5304
     6.8900   7.1413   7.7813   8.2180   8.6598   8.9308  12.1664  12.5636
    12.7835  13.5321

          k =-0.0500 0.4500 0.2500 (  5407 PWs)   bands (ev):

   -47.2470 -23.5740 -23.4739 -23.4533  -7.2732  -6.9077  -6.7092  -6.1804
    -6.1514  -6.1376  -6.0345  -5.9616   2.2928   5.3426   6.1901   6.4120
     6.9272   7.1743   7.6539   8.2785   8.5622   9.0467  12.0901  12.9769
    13.0188  13.4414

          k = 0.4500 0.0500 0.2500 (  5407 PWs)   bands (ev):

   -47.2470 -23.5314 -23.4947 -23.4740  -7.4473  -6.7505  -6.7087  -6.1685
    -6.1380  -6.1346  -6.0248  -6.0075   2.3318   5.5308   6.2161   6.4172
     6.9251   7.2590   7.4758   8.3091   8.5733   9.0380  12.1459  12.7934
    12.9524  13.3458

          k = 0.3500 0.0500 0.3500 (  5407 PWs)   bands (ev):

   -47.2469 -23.5312 -23.4866 -23.4865  -7.4540  -6.7424  -6.6686  -6.1558
    -6.1431  -6.1259  -6.0488  -5.9675   2.3072   5.6823   5.9084   6.4932
     6.6560   7.1458   7.8406   7.9439   8.5282   9.1135  12.4676  12.5978
    12.9560  13.7584

          k =-0.0500 0.4500 0.3500 (  5403 PWs)   bands (ev):

   -47.2467 -23.5735 -23.4861 -23.4528  -7.2523  -6.8545  -6.6553  -6.1722
    -6.1554  -6.1347  -6.0671  -5.8816   2.1993   5.2953   5.9023   6.4527
     6.9139   7.1338   7.4888   7.9706   8.3066   9.1416  12.4524  12.9846
    13.1678  13.9202

          k = 0.4500 0.0500 0.3500 (  5403 PWs)   bands (ev):

   -47.2467 -23.5309 -23.4941 -23.4862  -7.4429  -6.6730  -6.6418  -6.1585
    -6.1409  -6.1323  -6.0625  -5.9427   2.2368   5.4737   5.9114   6.3832
     6.6270   7.2979   7.5956   7.9949   8.3388   9.2456  12.5147  12.7876
    13.0787  13.8380

          k = 0.4500 0.0500 0.4500 (  5392 PWs)   bands (ev):

   -47.2466 -23.5306 -23.4938 -23.4937  -7.4471  -6.6086  -6.5976  -6.1576
    -6.1369  -6.1305  -6.0954  -5.9036   2.1774   5.3527   5.8121   6.4126
     6.4320   7.4356   7.6823   7.7409   8.0910   9.4057  12.7668  12.7911
    13.1622  14.0068

          k =-0.1500 0.2500 0.1500 (  5407 PWs)   bands (ev):

   -47.2474 -23.5537 -23.4622 -23.4621  -7.5239  -6.9419  -6.8057  -6.1597
    -6.1505  -6.1202  -5.9953  -5.9945   2.6644   5.9541   6.0340   6.4646
     7.1544   7.3196   7.8917   8.4997   8.6217   8.7190  11.8884  12.4299
    12.4870  13.8923

          k =-0.1500 0.3500 0.1500 (  5411 PWs)   bands (ev):

   -47.2472 -23.5665 -23.4617 -23.4616  -7.3750  -6.9362  -6.7732  -6.1762
    -6.1479  -6.1060  -6.0156  -5.9962   2.4831   5.6379   5.9882   6.4305
     7.0160   7.2992   7.7461   8.5120   8.6664   8.9311  11.8333  12.7352
    12.7763  13.4443

          k =-0.1500 0.4500 0.1500 (  5406 PWs)   bands (ev):

   -47.2471 -23.5743 -23.4614 -23.4613  -7.2734  -6.9398  -6.7520  -6.1854
    -6.1462  -6.0894  -6.0302  -6.0054   2.3781   5.3770   5.9523   6.4846
     6.9539   7.2735   7.7097   8.5080   8.6938   9.0256  11.7839  12.9297
    12.9600  13.2394

          k = 0.2500 0.1500 0.2500 (  5399 PWs)   bands (ev):

   -47.2472 -23.5400 -23.4746 -23.4743  -7.4785  -6.8869  -6.7782  -6.1591
    -6.1479  -6.1074  -5.9995  -5.9768   2.5693   5.9283   6.0247   6.2948
     6.8315   7.0776   8.1366   8.3977   8.5754   8.7517  12.1981  12.3647
    12.5124  13.7082

          k =-0.1500 0.3500 0.2500 (  5405 PWs)   bands (ev):

   -47.2470 -23.5659 -23.4739 -23.4612  -7.2960  -6.9180  -6.7767  -6.1696
    -6.1480  -6.0870  -6.0019  -5.9523   2.4321   5.5958   5.8770   6.1672
     6.7651   7.1085   7.7752   8.4816   8.6484   8.8592  12.0889  12.7186
    12.8233  13.6786

          k = 0.3500 0.1500 0.2500 (  5405 PWs)   bands (ev):

   -47.2470 -23.5395 -23.4867 -23.4740  -7.4086  -6.8441  -6.7483  -6.1606
    -6.1418  -6.0865  -5.9961  -5.9785   2.4586   5.7528   5.9477   6.1262
     6.6436   7.0530   8.0209   8.3798   8.5446   8.8987  12.1789  12.5696
    12.7550  13.6610

          k =-0.1500 0.4500 0.2500 (  5414 PWs)   bands (ev):

   -47.2468 -23.5737 -23.4736 -23.4609  -7.2133  -6.9155  -6.7676  -6.1726
    -6.1443  -6.0643  -6.0151  -5.9446   2.3554   5.3500   5.7897   6.1704
     6.7429   7.1858   7.6051   8.5166   8.5991   8.8857  12.0680  12.9190
    12.9883  13.7534

          k = 0.4500 0.1500 0.2500 (  5414 PWs)   bands (ev):

   -47.2468 -23.5392 -23.4943 -23.4737  -7.3726  -6.8101  -6.7284  -6.1606
    -6.1361  -6.0664  -5.9973  -5.9860   2.3902   5.5266   5.9190   6.0939
     6.5966   7.1037   7.8640   8.4061   8.4725   8.9648  12.1612  12.7480
    12.9393  13.6908

          k = 0.3500 0.1500 0.3500 (  5413 PWs)   bands (ev):

   -47.2467 -23.5390 -23.4863 -23.4861  -7.3784  -6.7898  -6.7196  -6.1527
    -6.1365  -6.0619  -5.9912  -5.9513   2.3993   5.6656   5.7883   5.9554
     6.3185   7.0160   7.9772   8.2940   8.3856   9.1165  12.3888  12.6132
    12.9008  13.9220

          k =-0.1500 0.4500 0.3500 (  5415 PWs)   bands (ev):

   -47.2466 -23.5731 -23.4858 -23.4604  -7.1874  -6.8930  -6.7311  -6.1633
    -6.1288  -6.0525  -6.0263  -5.8652   2.3227   5.2874   5.8211   5.8554
     6.3473   7.1248   7.6358   8.1947   8.4185   9.1082  12.4139  12.8899
    13.0965  14.2046

          k = 0.4500 0.1500 0.3500 (  5415 PWs)   bands (ev):

   -47.2466 -23.5387 -23.4938 -23.4859  -7.3693  -6.7454  -6.7006  -6.1498
    -6.1270  -6.0436  -6.0018  -5.9281   2.3583   5.4643   5.7988   5.8645
     6.2100   7.0453   7.7999   8.2275   8.3369   9.2391  12.4783  12.7388
    13.0310  14.1501

          k = 0.4500 0.1500 0.4500 (  5405 PWs)   bands (ev):

   -47.2464 -23.5384 -23.4934 -23.4934  -7.3755  -6.6937  -6.6838  -6.1458
    -6.1116  -6.0275  -6.0165  -5.8899   2.3328   5.3413   5.7651   5.8655
     5.9481   7.0607   7.5641   8.2293   8.2338   9.4016  12.7123  12.7516
    13.1154  14.4404

          k =-0.2500 0.3500 0.2500 (  5411 PWs)   bands (ev):

   -47.2467 -23.5654 -23.4735 -23.4734  -7.2151  -6.9187  -6.8126  -6.1574
    -6.1388  -6.0434  -5.9599  -5.9154   2.4916   5.5393   5.5941   5.9054
     6.5874   6.5942   7.8188   8.6045   8.7583   8.8465  12.1615  12.7185
    12.8127  13.9107

          k =-0.2500 0.4500 0.2500 (  5411 PWs)   bands (ev):

   -47.2466 -23.5732 -23.4732 -23.4731  -7.1308  -6.9281  -6.8232  -6.1567
    -6.1310  -6.0058  -5.9659  -5.9001   2.4552   5.3579   5.4181   5.8799
     6.5631   6.6170   7.5849   8.5690   8.7867   8.8937  12.2059  12.8632
    12.9885  14.1769

          k = 0.3500 0.2500 0.3500 (  5419 PWs)   bands (ev):

   -47.2465 -23.5517 -23.4858 -23.4856  -7.2535  -6.8553  -6.7874  -6.1344
    -6.1313  -5.9914  -5.9148  -5.9070   2.5565   5.4759   5.4799   5.6561
     6.1646   6.4604   7.5081   8.6733   8.7226   9.1217  12.3716  12.7128
    12.8845  14.2058

          k =-0.2500 0.4500 0.3500 (  5428 PWs)   bands (ev):

   -47.2464 -23.5726 -23.4854 -23.4727  -7.0873  -6.9444  -6.8202  -6.1437
    -6.1118  -5.9788  -5.9215  -5.8329   2.5495   5.2208   5.3769   5.6006
     6.0529   6.5482   7.1259   8.6300   8.8649   9.0903  12.4753  12.8584
    13.0518  14.5515

          k = 0.4500 0.2500 0.3500 (  5428 PWs)   bands (ev):

   -47.2464 -23.5514 -23.4932 -23.4854  -7.2484  -6.8382  -6.7726  -6.1306
    -6.1195  -5.9461  -5.9088  -5.8881   2.5795   5.3554   5.4342   5.4778
     6.0480   6.4568   7.1725   8.7061   8.7260   9.2353  12.5423  12.7470
    13.0146  14.5299

          k = 0.4500 0.2500 0.4500 (  5427 PWs)   bands (ev):

   -47.2462 -23.5511 -23.4929 -23.4929  -7.2588  -6.7928  -6.7833  -6.1248
    -6.1081  -5.9039  -5.8908  -5.8615   2.6349   5.2865   5.3429   5.3607
     5.8494   6.4280   6.7780   8.7390   8.7439   9.3949  12.7405  12.7939
    13.0824  14.8365

          k =-0.3500 0.4500 0.3500 (  5427 PWs)   bands (ev):

   -47.2461 -23.5721 -23.4849 -23.4848  -7.0261  -6.9652  -6.8753  -6.1255
    -6.1015  -5.9115  -5.8335  -5.7891   2.8231   4.9902   5.2406   5.2941
     5.9028   6.1214   6.4354   8.9718   9.1076   9.1323  12.6665  12.9307
    13.0491  14.9204

          k = 0.4500 0.3500 0.4500 (  5435 PWs)   bands (ev):

   -47.2460 -23.5637 -23.4924 -23.4924  -7.1413  -6.8705  -6.8603  -6.1064
    -6.1038  -5.8400  -5.7896  -5.7853   3.0505   4.9597   4.9612   5.2288
     5.8477   5.8987   5.9472   9.0666   9.0761   9.3884  12.8871  12.9445
    13.0688  15.2563

     the Fermi energy is     9.4334 ev

!    total energy              =    -364.94832472 Ry
     Harris-Foulkes estimate   =    -364.94832473 Ry
     estimated scf accuracy    <          9.2E-09 Ry

     The total energy is the sum of the following terms:

     one-electron contribution =     -91.90355498 Ry
     hartree contribution      =      73.70988107 Ry
     xc contribution           =     -85.63246636 Ry
     ewald contribution        =    -261.12894093 Ry
     smearing contrib. (-TS)   =       0.00675648 Ry

     convergence has been achieved in  14 iterations

     Forces acting on atoms (cartesian axes, Ry/au):

     atom    1 type  1   force =     0.00000000    0.01586685    0.00000000
     atom    2 type  2   force =     0.00000000   -0.01625073    0.00000000
     atom    3 type  3   force =     0.00000000    0.00729307    0.00000000
     atom    4 type  3   force =     0.00000000   -0.01420226    0.00000000
     atom    5 type  3   force =     0.00000000    0.00729307    0.00000000

     Total force =     0.023920     Total SCF correction =     0.000054


     Computing stress (Cartesian axis) and pressure

          total   stress  (Ry/bohr**3)                   (kbar)     P=  -76.96
  -0.00059971   0.00000000   0.00000000        -88.22      0.00      0.00
   0.00000000  -0.00037007   0.00000000          0.00    -54.44      0.00
   0.00000000   0.00000000  -0.00059971          0.00      0.00    -88.22


     BFGS Geometry Optimization

     number of scf cycles    =   1
     number of bfgs steps    =   0

     energy   new            =    -364.9483247199 Ry

     new trust radius        =       0.0162507260 bohr
     new conv_thr            =       0.0000000100 Ry


ATOMIC_POSITIONS (crystal)
Pb       0.000000000   0.000000000   0.000000000    0   0   0
Ti       0.500000000   0.545875722   0.500000000
O        0.500000000   0.500953342   0.000000000
O        0.500000000  -0.001856504   0.500000000
O        0.000000000   0.500953342   0.500000000



     Writing output data file PbTiO3.save/
     NEW-OLD atomic charge density approx. for the potential

     Check: negative core charge=   -0.000005

     total cpu time spent up to now is      560.3 secs

     Self-consistent Calculation

     iteration #  1     ecut=    80.00 Ry     beta= 0.70
     Davidson diagonalization with overlap
     ethr =  1.00E-06,  avg # of iterations =  4.0

     Threshold (ethr) on eigenvalues was too large:
     Diagonalizing with lowered threshold

     Davidson diagonalization with overlap
     ethr =  4.73E-08,  avg # of iterations =  1.4

     total cpu time spent up to now is      649.1 secs

     total energy              =    -364.94883257 Ry
     Harris-Foulkes estimate   =    -364.94884216 Ry
     estimated scf accuracy    <       0.00002094 Ry

     iteration #  2     ecut=    80.00 Ry     beta= 0.70
     Davidson diagonalization with overlap
     ethr =  4.76E-08,  avg # of iterations =  3.6

     total cpu time spent up to now is      689.0 secs

     total energy              =    -364.94882578 Ry
     Harris-Foulkes estimate   =    -364.94885151 Ry
     estimated scf accuracy    <       0.00007195 Ry

     iteration #  3     ecut=    80.00 Ry     beta= 0.70
     Davidson diagonalization with overlap
     ethr =  4.76E-08,  avg # of iterations =  3.6

     total cpu time spent up to now is      726.9 secs

     total energy              =    -364.94883919 Ry
     Harris-Foulkes estimate   =    -364.94884048 Ry
     estimated scf accuracy    <       0.00000453 Ry

     iteration #  4     ecut=    80.00 Ry     beta= 0.70
     Davidson diagonalization with overlap
     ethr =  1.03E-08,  avg # of iterations =  2.8

     total cpu time spent up to now is      759.6 secs

     total energy              =    -364.94883975 Ry
     Harris-Foulkes estimate   =    -364.94884000 Ry
     estimated scf accuracy    <       0.00000052 Ry

     iteration #  5     ecut=    80.00 Ry     beta= 0.70
     Davidson diagonalization with overlap
     ethr =  1.17E-09,  avg # of iterations =  3.3

     total cpu time spent up to now is      797.5 secs

     total energy              =    -364.94883987 Ry
     Harris-Foulkes estimate   =    -364.94883998 Ry
     estimated scf accuracy    <       0.00000034 Ry

     iteration #  6     ecut=    80.00 Ry     beta= 0.70
     Davidson diagonalization with overlap
     ethr =  7.66E-10,  avg # of iterations =  2.9

     total cpu time spent up to now is      828.4 secs

     End of self-consistent calculation

          k = 0.0500 0.0500 0.0500 (  5428 PWs)   bands (ev):

   -47.2497 -23.5347 -23.4570 -23.4570  -7.8745  -7.0230  -6.9077  -6.1390
    -6.1227  -6.1225  -5.9807  -5.9550   3.3811   6.0707   6.1083   6.2140
     7.9359   7.9594   8.3458   8.3513   8.5964   8.6332  11.4257  11.8450
    11.8533  13.3456

          k = 0.0500 0.0500 0.1500 (  5403 PWs)   bands (ev):

   -47.2495 -23.5344 -23.4647 -23.4567  -7.8054  -6.9915  -6.8835  -6.1446
    -6.1284  -6.1222  -6.0069  -5.9579   3.1553   6.1178   6.1853   6.3439
     7.7232   7.9164   8.2228   8.3432   8.4758   8.5879  11.7128  11.8548
    11.9392  13.5381

          k = 0.0500 0.0500 0.2500 (  5408 PWs)   bands (ev):

   -47.2493 -23.5340 -23.4771 -23.4563  -7.6901  -6.9354  -6.8449  -6.1539
    -6.1378  -6.1215  -6.0588  -5.9584   2.8571   6.0851   6.2986   6.4044
     7.5923   7.7244   8.1312   8.2648   8.4029   8.6341  11.8554  12.1319
    12.2362  13.5497

          k = 0.0500 0.0500 0.3500 (  5405 PWs)   bands (ev):

   -47.2490 -23.5335 -23.4895 -23.4558  -7.5701  -6.8691  -6.8085  -6.1665
    -6.1489  -6.1209  -6.1139  -5.9602   2.6132   5.7640   6.4829   6.5815
     7.3484   7.4639   8.0939   8.1850   8.4957   8.9198  11.8567  12.5090
    12.5941  13.0459

          k = 0.0500 0.0500 0.4500 (  5400 PWs)   bands (ev):

   -47.2489 -23.5332 -23.4972 -23.4556  -7.4931  -6.8171  -6.7912  -6.1882
    -6.1585  -6.1371  -6.1205  -5.9626   2.4826   5.5154   6.6936   6.8300
     7.0714   7.1509   8.1075   8.1441   8.5504   9.2824  11.8425  12.3923
    12.7313  12.8434

          k = 0.0500 0.1500 0.1500 (  5403 PWs)   bands (ev):

   -47.2494 -23.5423 -23.4644 -23.4564  -7.7235  -6.9777  -6.8577  -6.1446
    -6.1362  -6.1271  -6.0002  -5.9799   2.9807   6.0749   6.1828   6.4705
     7.5068   7.7386   8.0799   8.3952   8.4393   8.6779  11.7139  12.0810
    12.1457  13.6315

          k = 0.0500 0.1500 0.2500 (  5394 PWs)   bands (ev):

   -47.2491 -23.5419 -23.4768 -23.4560  -7.6125  -6.9281  -6.8281  -6.1561
    -6.1436  -6.1267  -6.0312  -5.9738   2.7405   6.0193   6.2958   6.4451
     7.3450   7.5838   7.9742   8.1892   8.4397   8.7945  12.0664  12.1453
    12.3909  13.6948

          k = 0.0500 0.1500 0.3500 (  5400 PWs)   bands (ev):

   -47.2489 -23.5414 -23.4892 -23.4555  -7.4987  -6.8747  -6.7970  -6.1703
    -6.1510  -6.1265  -6.0569  -5.9748   2.5331   5.7545   6.4003   6.5447
     7.1182   7.4415   7.8953   8.1875   8.4194   8.9710  12.0754  12.5044
    12.7033  13.1979

          k = 0.0500 0.1500 0.4500 (  5407 PWs)   bands (ev):

   -47.2487 -23.5411 -23.4968 -23.4553  -7.4270  -6.8396  -6.7763  -6.1826
    -6.1582  -6.1263  -6.0647  -5.9806   2.4186   5.5177   6.5421   6.6843
     6.9384   7.2083   7.9252   8.2613   8.3882   9.1087  12.0583  12.7190
    12.7605  12.9275

          k = 0.0500 0.2500 0.2500 (  5400 PWs)   bands (ev):

   -47.2489 -23.5546 -23.4763 -23.4555  -7.4842  -6.9225  -6.7900  -6.1584
    -6.1482  -6.1313  -6.0147  -5.9846   2.5611   5.8956   6.2534   6.4097
     7.1345   7.3224   7.7719   8.1739   8.5917   8.9127  12.1154  12.4350
    12.6387  13.6861

          k = 0.0500 0.2500 0.3500 (  5414 PWs)   bands (ev):

   -47.2487 -23.5541 -23.4886 -23.4551  -7.3887  -6.8908  -6.7510  -6.1668
    -6.1501  -6.1328  -6.0247  -5.9664   2.4042   5.7196   6.1430   6.5141
     6.9598   7.2746   7.6950   7.9853   8.6655   8.9041  12.4055  12.5053
    12.8755  13.4623

          k = 0.0500 0.2500 0.4500 (  5407 PWs)   bands (ev):

   -47.2485 -23.5537 -23.4963 -23.4548  -7.3335  -6.8714  -6.7181  -6.1719
    -6.1566  -6.1343  -6.0186  -5.9645   2.3138   5.5093   6.1701   6.5389
     6.8608   7.3101   7.6007   7.9927   8.6358   8.8825  12.4107  12.7071
    13.0544  13.3007

          k = 0.0500 0.3500 0.3500 (  5407 PWs)   bands (ev):

   -47.2484 -23.5667 -23.4881 -23.4546  -7.2961  -6.8804  -6.6952  -6.1660
    -6.1533  -6.1323  -6.0507  -5.9138   2.2775   5.5339   5.9172   6.5141
     6.9086   7.1242   7.5777   7.9319   8.5332   9.0257  12.4689  12.7656
    13.0546  13.7383

          k = 0.0500 0.3500 0.4500 (  5403 PWs)   bands (ev):

   -47.2483 -23.5664 -23.4957 -23.4543  -7.2719  -6.8532  -6.6514  -6.1667
    -6.1552  -6.1362  -6.0582  -5.8840   2.2082   5.4227   5.7968   6.5884
     6.7372   7.3072   7.5072   7.7987   8.3035   9.1074  12.6838  12.7616
    13.2035  13.7982

          k = 0.0500 0.4500 0.4500 (  5392 PWs)   bands (ev):

   -47.2481 -23.5741 -23.4953 -23.4540  -7.2553  -6.8126  -6.6043  -6.1696
    -6.1546  -6.1330  -6.0872  -5.8389   2.1430   5.2459   5.6992   6.5796
     6.7323   7.2739   7.5389   7.7243   7.9797   9.2681  12.6715  12.9719
    13.3069  14.0799

          k = 0.1500 0.1500 0.1500 (  5404 PWs)   bands (ev):

   -47.2492 -23.5420 -23.4642 -23.4640  -7.6600  -6.9553  -6.8398  -6.1504
    -6.1409  -6.1258  -6.0018  -5.9792   2.8610   6.0667   6.1040   6.5621
     7.3651   7.4968   8.0450   8.4575   8.5364   8.5612  11.9168  12.1278
    12.1618  14.0870

          k = 0.1500 0.1500 0.2500 (  5407 PWs)   bands (ev):

   -47.2490 -23.5416 -23.4765 -23.4637  -7.5577  -6.9162  -6.8102  -6.1608
    -6.1422  -6.1216  -6.0162  -5.9743   2.6779   5.9984   6.1193   6.4564
     7.1540   7.2899   8.0622   8.3405   8.5328   8.7131  12.0945  12.2596
    12.3862  13.8718

          k = 0.1500 0.1500 0.3500 (  5411 PWs)   bands (ev):

   -47.2487 -23.5411 -23.4889 -23.4632  -7.4569  -6.8723  -6.7791  -6.1706
    -6.1365  -6.1145  -6.0363  -5.9750   2.5087   5.7574   6.1487   6.4034
     6.9354   7.3270   7.8570   8.3722   8.5404   8.8630  12.0432  12.5573
    12.6929  13.4055

          k = 0.1500 0.1500 0.4500 (  5406 PWs)   bands (ev):

   -47.2486 -23.5408 -23.4965 -23.4629  -7.3964  -6.8424  -6.7582  -6.1748
    -6.1322  -6.1066  -6.0496  -5.9815   2.4117   5.5218   6.1707   6.4587
     6.8166   7.4370   7.6345   8.4497   8.5178   8.9285  11.9834  12.7537
    12.9068  13.1822

          k = 0.1500 0.2500 0.2500 (  5399 PWs)   bands (ev):

   -47.2487 -23.5543 -23.4760 -23.4632  -7.4284  -6.9164  -6.7958  -6.1628
    -6.1503  -6.1079  -5.9969  -5.9679   2.5578   5.8672   6.0030   6.2970
     6.8897   7.0991   7.9925   8.3844   8.6304   8.7942  12.1519  12.4283
    12.5983  13.6943

          k = 0.1500 0.2500 0.3500 (  5405 PWs)   bands (ev):

   -47.2485 -23.5538 -23.4883 -23.4627  -7.3400  -6.9005  -6.7628  -6.1651
    -6.1413  -6.0976  -5.9979  -5.9510   2.4465   5.7078   5.9798   6.1219
     6.6051   7.1298   8.0070   8.2349   8.6406   8.8275  12.2708  12.5365
    12.8207  13.6514

          k = 0.1500 0.2500 0.4500 (  5414 PWs)   bands (ev):

   -47.2484 -23.5534 -23.4959 -23.4624  -7.2903  -6.8946  -6.7315  -6.1642
    -6.1332  -6.0936  -5.9912  -5.9504   2.3781   5.5085   5.9688   6.0822
     6.4997   7.2225   7.8437   8.3114   8.5253   8.8435  12.2746  12.7043
    12.9994  13.6837

          k = 0.1500 0.3500 0.3500 (  5413 PWs)   bands (ev):

   -47.2483 -23.5664 -23.4878 -23.4622  -7.2366  -6.9077  -6.7432  -6.1631
    -6.1354  -6.0769  -6.0052  -5.8979   2.3736   5.5177   5.8628   5.9342
     6.3633   7.0930   7.8416   8.2430   8.4817   9.0032  12.3969  12.6904
    12.9773  13.9301

          k = 0.1500 0.3500 0.4500 (  5415 PWs)   bands (ev):

   -47.2481 -23.5661 -23.4954 -23.4619  -7.2124  -6.9021  -6.7049  -6.1596
    -6.1198  -6.0798  -6.0036  -5.8685   2.3326   5.4133   5.7477   5.9563
     6.1719   7.1585   7.7280   8.1806   8.3122   9.1015  12.6024  12.6934
    13.1147  14.1417

          k = 0.1500 0.4500 0.4500 (  5405 PWs)   bands (ev):

   -47.2480 -23.5738 -23.4950 -23.4616  -7.1902  -6.8742  -6.6893  -6.1579
    -6.1042  -6.0661  -6.0210  -5.8223   2.2988   5.2339   5.6688   5.9370
     6.0773   7.1576   7.4521   8.0888   8.2935   9.2542  12.6545  12.8667
    13.2093  14.4595

          k = 0.2500 0.2500 0.2500 (  5395 PWs)   bands (ev):

   -47.2485 -23.5538 -23.4756 -23.4754  -7.3465  -6.9031  -6.7980  -6.1548
    -6.1503  -6.0784  -5.9741  -5.9435   2.5403   5.7449   5.8031   6.1454
     6.6501   6.6999   8.0914   8.5691   8.6450   8.7857  12.1695  12.5659
    12.5724  13.7208

          k = 0.2500 0.2500 0.3500 (  5411 PWs)   bands (ev):

   -47.2483 -23.5533 -23.4878 -23.4750  -7.2799  -6.8922  -6.7800  -6.1501
    -6.1377  -6.0438  -5.9559  -5.9265   2.5080   5.6212   5.6742   5.8736
     6.3834   6.6561   7.9094   8.5655   8.6696   8.9127  12.2369  12.6197
    12.8003  13.9045

          k = 0.2500 0.2500 0.4500 (  5411 PWs)   bands (ev):

   -47.2481 -23.5530 -23.4954 -23.4747  -7.2483  -6.8910  -6.7528  -6.1470
    -6.1280  -6.0118  -5.9491  -5.9230   2.4816   5.4919   5.5686   5.7577
     6.3087   6.6934   7.6850   8.5934   8.6315   8.9677  12.3229  12.7062
    12.9759  14.1410

          k = 0.2500 0.3500 0.3500 (  5419 PWs)   bands (ev):

   -47.2480 -23.5659 -23.4873 -23.4745  -7.1564  -6.9302  -6.8056  -6.1453
    -6.1225  -6.0065  -5.9304  -5.8679   2.5405   5.3962   5.5172   5.6672
     6.1001   6.5517   7.4719   8.6411   8.8241   9.0052  12.3735  12.7396
    12.9245  14.2141

          k = 0.2500 0.3500 0.4500 (  5428 PWs)   bands (ev):

   -47.2479 -23.5656 -23.4949 -23.4742  -7.1356  -6.9455  -6.7746  -6.1399
    -6.1100  -5.9820  -5.9150  -5.8393   2.5620   5.3580   5.4229   5.5063
     5.9247   6.5745   7.1329   8.6642   8.8148   9.1074  12.5850  12.7317
    13.0556  14.5387

          k = 0.2500 0.4500 0.4500 (  5427 PWs)   bands (ev):

   -47.2477 -23.5733 -23.4945 -23.4739  -7.0871  -6.9523  -6.7880  -6.1369
    -6.0963  -5.9623  -5.8956  -5.7910   2.6031   5.1755   5.3630   5.4766
     5.7582   6.5462   6.7017   8.6609   8.8595   9.2403  12.7063  12.8501
    13.1421  14.8597

          k = 0.3500 0.3500 0.3500 (  5415 PWs)   bands (ev):

   -47.2478 -23.5654 -23.4868 -23.4867  -7.1194  -6.9160  -6.8454  -6.1268
    -6.1138  -5.9391  -5.8653  -5.8323   2.7223   5.1668   5.2627   5.4955
     6.0294   6.1129   6.8854   8.8979   8.9949   9.1261  12.5230  12.8973
    12.8987  14.5615

          k = 0.3500 0.3500 0.4500 (  5427 PWs)   bands (ev):

   -47.2477 -23.5651 -23.4944 -23.4865  -7.1201  -6.9164  -6.8321  -6.1186
    -6.1058  -5.8935  -5.8350  -5.8059   2.8410   5.0755   5.1261   5.3448
     5.8890   6.0809   6.4366   8.9546   9.0607   9.2329  12.7252  12.8603
    13.0408  14.9222

          k = 0.3500 0.4500 0.4500 (  5435 PWs)   bands (ev):

   -47.2475 -23.5728 -23.4940 -23.4862  -7.0339  -6.9678  -6.8644  -6.1162
    -6.0933  -5.8683  -5.7907  -5.7534   3.0271   4.9224   5.0666   5.1970
     5.7102   5.8718   6.0563   9.0435   9.2117   9.2394  12.8611  12.9608
    13.1092  15.2683

          k = 0.4500 0.4500 0.4500 (  5457 PWs)   bands (ev):

   -47.2474 -23.5725 -23.4937 -23.4937  -7.0635  -6.9143  -6.9022  -6.1047
    -6.0904  -5.8137  -5.7326  -5.7262   3.4463   4.7573   4.8327   5.1045
     5.2032   5.7020   5.8327   9.2138   9.2272   9.3814  13.0168  13.0833
    13.0883  15.6014

          k =-0.0500 0.1500 0.0500 (  5403 PWs)   bands (ev):

   -47.2495 -23.5426 -23.4567 -23.4567  -7.7907  -7.0068  -6.8755  -6.1386
    -6.1294  -6.1274  -5.9880  -5.9796   3.1501   6.1102   6.1223   6.3374
     7.7543   7.7774   8.2100   8.3377   8.6262   8.6577  11.4277  12.0703
    12.0871  13.3480

          k =-0.0500 0.2500 0.0500 (  5408 PWs)   bands (ev):

   -47.2493 -23.5554 -23.4563 -23.4562  -7.6463  -6.9855  -6.8174  -6.1417
    -6.1379  -6.1344  -6.0459  -5.9797   2.8415   6.0285   6.2141   6.3243
     7.5012   7.5297   8.2882   8.2967   8.7030   8.7370  11.4310  12.4171
    12.4421  13.3525

          k =-0.0500 0.3500 0.0500 (  5405 PWs)   bands (ev):

   -47.2490 -23.5682 -23.4558 -23.4558  -7.4852  -6.9757  -6.7480  -6.1630
    -6.1405  -6.1371  -6.1062  -5.9825   2.5861   5.6662   6.3238   6.4279
     7.2633   7.2786   8.2281   8.5346   8.7531   9.0234  11.4333  12.7483
    12.7802  13.1160

          k =-0.0500 0.4500 0.0500 (  5400 PWs)   bands (ev):

   -47.2489 -23.5761 -23.4555 -23.4555  -7.3702  -6.9822  -6.6955  -6.1967
    -6.1435  -6.1367  -6.1326  -5.9858   2.4479   5.3945   6.4104   6.5514
     7.0890   7.1086   8.1892   8.6350   8.7863   9.3984  11.4321  12.4366
    12.9454  12.9855

          k = 0.1500 0.0500 0.1500 (  5403 PWs)   bands (ev):

   -47.2494 -23.5341 -23.4645 -23.4643  -7.7408  -6.9659  -6.8578  -6.1496
    -6.1288  -6.1268  -6.0105  -5.9708   2.9875   6.0763   6.2486   6.4590
     7.5574   7.6956   8.0729   8.3775   8.5246   8.5872  11.8887  11.9496
    11.9769  13.8667

          k =-0.0500 0.2500 0.1500 (  5394 PWs)   bands (ev):

   -47.2491 -23.5551 -23.4639 -23.4560  -7.5838  -6.9599  -6.8112  -6.1512
    -6.1434  -6.1322  -6.0178  -5.9932   2.7305   5.9596   6.2352   6.4319
     7.2585   7.5153   7.9759   8.4224   8.5004   8.8406  11.7130  12.4229
    12.4712  13.6524

          k = 0.2500 0.0500 0.1500 (  5394 PWs)   bands (ev):

   -47.2491 -23.5337 -23.4768 -23.4640  -7.6357  -6.9182  -6.8167  -6.1567
    -6.1353  -6.1268  -6.0384  -5.9760   2.7484   6.0457   6.2840   6.4672
     7.3537   7.4550   8.0098   8.3283   8.5220   8.6932  11.9262  12.2179
    12.2998  13.8820

          k =-0.0500 0.3500 0.1500 (  5400 PWs)   bands (ev):

   -47.2489 -23.5679 -23.4634 -23.4555  -7.4314  -6.9506  -6.7575  -6.1713
    -6.1431  -6.1357  -6.0500  -5.9951   2.5118   5.6398   6.2665   6.4911
     7.0507   7.3032   8.0534   8.4125   8.5618   9.0697  11.7065  12.7449
    12.7896  13.2846

          k = 0.3500 0.0500 0.1500 (  5400 PWs)   bands (ev):

   -47.2489 -23.5332 -23.4892 -23.4635  -7.5309  -6.8565  -6.7791  -6.1682
    -6.1382  -6.1265  -6.0759  -5.9778   2.5410   5.7689   6.3416   6.5988
     7.0945   7.4389   7.7544   8.3820   8.5238   8.9311  11.9064  12.5651
    12.6359  13.2582

          k =-0.0500 0.4500 0.1500 (  5407 PWs)   bands (ev):

   -47.2487 -23.5757 -23.4631 -23.4552  -7.3263  -6.9528  -6.7193  -6.1913
    -6.1425  -6.1395  -6.0613  -6.0017   2.3898   5.3786   6.2988   6.6020
     6.9223   7.1370   8.1564   8.3908   8.6017   9.2449  11.6946  12.8003
    12.9606  13.0057

          k = 0.4500 0.0500 0.1500 (  5407 PWs)   bands (ev):

   -47.2487 -23.5329 -23.4968 -23.4632  -7.4671  -6.7990  -6.7678  -6.1815
    -6.1399  -6.1264  -6.0951  -5.9815   2.4263   5.5215   6.4761   6.6721
     7.0112   7.2651   7.6796   8.3797   8.5547   9.1410  11.8648  12.7808
    12.8063  12.8653

          k = 0.2500 0.0500 0.2500 (  5400 PWs)   bands (ev):

   -47.2489 -23.5332 -23.4765 -23.4762  -7.5534  -6.8786  -6.7702  -6.1553
    -6.1375  -6.1295  -6.0166  -6.0027   2.5807   6.0212   6.1708   6.5031
     7.0661   7.1642   8.0882   8.1168   8.7121   8.7345  12.1488  12.2676
    12.5386  13.8139

          k =-0.0500 0.3500 0.2500 (  5414 PWs)   bands (ev):

   -47.2487 -23.5673 -23.4758 -23.4550  -7.3544  -6.9152  -6.7437  -6.1673
    -6.1507  -6.1330  -6.0301  -5.9690   2.3931   5.5991   6.1835   6.4348
     6.9691   7.2401   7.6394   8.2257   8.6230   9.0002  12.1046  12.7664
    12.8808  13.5366

          k = 0.3500 0.0500 0.2500 (  5414 PWs)   bands (ev):

   -47.2487 -23.5327 -23.4887 -23.4758  -7.4813  -6.8161  -6.7261  -6.1597
    -6.1382  -6.1294  -6.0286  -6.0006   2.4239   5.7735   6.1252   6.5261
     6.8925   7.1425   7.7735   8.2132   8.6639   8.9295  12.1678  12.5687
    12.7911  13.5313

          k =-0.0500 0.4500 0.2500 (  5407 PWs)   bands (ev):

   -47.2485 -23.5751 -23.4755 -23.4548  -7.2761  -6.9037  -6.7126  -6.1795
    -6.1504  -6.1372  -6.0339  -5.9621   2.2951   5.3467   6.1968   6.4141
     6.9349   7.1637   7.6480   8.2739   8.5673   9.0425  12.0948  12.9693
    13.0257  13.4343

          k = 0.4500 0.0500 0.2500 (  5407 PWs)   bands (ev):

   -47.2485 -23.5324 -23.4963 -23.4755  -7.4432  -6.7528  -6.7102  -6.1681
    -6.1375  -6.1341  -6.0240  -6.0065   2.3328   5.5213   6.2135   6.4149
     6.9257   7.2587   7.4705   8.3053   8.5776   9.0353  12.1451  12.7996
    12.9609  13.3496

          k = 0.3500 0.0500 0.3500 (  5407 PWs)   bands (ev):

   -47.2484 -23.5323 -23.4882 -23.4881  -7.4497  -6.7441  -6.6705  -6.1554
    -6.1426  -6.1254  -6.0483  -5.9661   2.3078   5.6790   5.8989   6.4917
     6.6579   7.1444   7.8354   7.9355   8.5308   9.1117  12.4732  12.5995
    12.9683  13.7556

          k =-0.0500 0.4500 0.3500 (  5403 PWs)   bands (ev):

   -47.2483 -23.5745 -23.4877 -23.4543  -7.2554  -6.8500  -6.6574  -6.1713
    -6.1543  -6.1343  -6.0665  -5.8823   2.2007   5.3007   5.8906   6.4627
     6.9121   7.1425   7.4786   7.9636   8.3056   9.1432  12.4617  12.9732
    13.1814  13.9127

          k = 0.4500 0.0500 0.3500 (  5403 PWs)   bands (ev):

   -47.2483 -23.5320 -23.4957 -23.4878  -7.4385  -6.6748  -6.6432  -6.1582
    -6.1404  -6.1317  -6.0620  -5.9411   2.2371   5.4667   5.9007   6.3836
     6.6285   7.2956   7.5898   7.9897   8.3391   9.2432  12.5170  12.7904
    13.0940  13.8382

          k = 0.4500 0.0500 0.4500 (  5392 PWs)   bands (ev):

   -47.2481 -23.5317 -23.4954 -23.4954  -7.4428  -6.6099  -6.5990  -6.1573
    -6.1363  -6.1300  -6.0947  -5.9019   2.1774   5.3461   5.7966   6.4144
     6.4340   7.4323   7.6798   7.7357   8.0874   9.4029  12.7682  12.7916
    13.1828  14.0169

          k =-0.1500 0.2500 0.1500 (  5407 PWs)   bands (ev):

   -47.2490 -23.5548 -23.4637 -23.4636  -7.5232  -6.9415  -6.8093  -6.1591
    -6.1496  -6.1197  -5.9957  -5.9941   2.6665   5.9557   6.0406   6.4700
     7.1520   7.3177   7.8970   8.5072   8.6158   8.7133  11.8915  12.4254
    12.4783  13.8932

          k =-0.1500 0.3500 0.1500 (  5411 PWs)   bands (ev):

   -47.2487 -23.5675 -23.4632 -23.4631  -7.3759  -6.9343  -6.7770  -6.1755
    -6.1470  -6.1056  -6.0159  -5.9956   2.4855   5.6408   5.9995   6.4349
     7.0064   7.3015   7.7432   8.5202   8.6610   8.9251  11.8361  12.7334
    12.7706  13.4439

          k =-0.1500 0.4500 0.1500 (  5406 PWs)   bands (ev):

   -47.2486 -23.5753 -23.4629 -23.4628  -7.2760  -6.9362  -6.7559  -6.1845
    -6.1452  -6.0892  -6.0305  -6.0047   2.3808   5.3798   5.9663   6.4904
     6.9404   7.2770   7.7026   8.5164   8.6885   9.0197  11.7858  12.9296
    12.9575  13.2376

          k = 0.2500 0.1500 0.2500 (  5399 PWs)   bands (ev):

   -47.2487 -23.5411 -23.4761 -23.4759  -7.4755  -6.8880  -6.7808  -6.1585
    -6.1473  -6.1067  -5.9988  -5.9769   2.5706   5.9289   6.0268   6.2941
     6.8283   7.0723   8.1347   8.3949   8.5781   8.7514  12.2043  12.3654
    12.5138  13.7073

          k =-0.1500 0.3500 0.2500 (  5405 PWs)   bands (ev):

   -47.2485 -23.5670 -23.4755 -23.4627  -7.2964  -6.9162  -6.7796  -6.1688
    -6.1471  -6.0864  -6.0014  -5.9528   2.4342   5.6004   5.8852   6.1661
     6.7554   7.1040   7.7773   8.4782   8.6506   8.8577  12.0944  12.7125
    12.8264  13.6780

          k = 0.3500 0.1500 0.2500 (  5405 PWs)   bands (ev):

   -47.2485 -23.5406 -23.4884 -23.4755  -7.4049  -6.8457  -6.7503  -6.1601
    -6.1412  -6.0858  -5.9954  -5.9782   2.4597   5.7499   5.9474   6.1246
     6.6393   7.0483   8.0123   8.3819   8.5496   8.8972  12.1804  12.5763
    12.7585  13.6623

          k =-0.1500 0.4500 0.2500 (  5414 PWs)   bands (ev):

   -47.2484 -23.5748 -23.4752 -23.4624  -7.2155  -6.9117  -6.7706  -6.1718
    -6.1434  -6.0640  -6.0144  -5.9451   2.3577   5.3541   5.7999   6.1675
     6.7311   7.1871   7.6014   8.5171   8.5958   8.8867  12.0718  12.9140
    12.9933  13.7520

          k = 0.4500 0.1500 0.2500 (  5414 PWs)   bands (ev):

   -47.2484 -23.5403 -23.4960 -23.4752  -7.3686  -6.8123  -6.7295  -6.1602
    -6.1355  -6.0659  -5.9964  -5.9855   2.3911   5.5180   5.9161   6.0960
     6.5924   7.0990   7.8540   8.4120   8.4764   8.9629  12.1588  12.7578
    12.9430  13.6970

          k = 0.3500 0.1500 0.3500 (  5413 PWs)   bands (ev):

   -47.2483 -23.5401 -23.4879 -23.4877  -7.3742  -6.7913  -6.7213  -6.1523
    -6.1359  -6.0615  -5.9910  -5.9500   2.4000   5.6651   5.7852   5.9512
     6.3103   7.0119   7.9682   8.2930   8.3922   9.1147  12.3944  12.6151
    12.9084  13.9230

          k =-0.1500 0.4500 0.3500 (  5415 PWs)   bands (ev):

   -47.2481 -23.5742 -23.4874 -23.4619  -7.1899  -6.8889  -6.7329  -6.1626
    -6.1280  -6.0518  -6.0258  -5.8659   2.3242   5.2929   5.8271   5.8473
     6.3400   7.1203   7.6314   8.1976   8.4148   9.1117  12.4207  12.8833
    13.1045  14.2035

          k = 0.4500 0.1500 0.3500 (  5415 PWs)   bands (ev):

   -47.2481 -23.5398 -23.4954 -23.4875  -7.3649  -6.7470  -6.7017  -6.1495
    -6.1263  -6.0433  -6.0015  -5.9266   2.3587   5.4585   5.7955   5.8620
     6.2025   7.0408   7.7919   8.2312   8.3379   9.2368  12.4799  12.7434
    13.0400  14.1541

          k = 0.4500 0.1500 0.4500 (  5405 PWs)   bands (ev):

   -47.2480 -23.5395 -23.4951 -23.4951  -7.3712  -6.6947  -6.6848  -6.1455
    -6.1108  -6.0273  -6.0163  -5.8882   2.3327   5.3355   5.7557   5.8652
     5.9419   7.0560   7.5589   8.2295   8.2349   9.3988  12.7142  12.7527
    13.1281  14.4444

          k =-0.2500 0.3500 0.2500 (  5411 PWs)   bands (ev):

   -47.2483 -23.5664 -23.4751 -23.4749  -7.2143  -6.9173  -6.8151  -6.1566
    -6.1381  -6.0426  -5.9595  -5.9158   2.4935   5.5463   5.5970   5.9071
     6.5728   6.5853   7.8170   8.6056   8.7575   8.8494  12.1682  12.7150
    12.8145  13.9121

          k =-0.2500 0.4500 0.2500 (  5411 PWs)   bands (ev):

   -47.2481 -23.5742 -23.4748 -23.4746  -7.1321  -6.9246  -6.8256  -6.1559
    -6.1303  -6.0047  -5.9659  -5.9006   2.4573   5.3618   5.4255   5.8771
     6.5474   6.6129   7.5802   8.5714   8.7863   8.8968  12.2101  12.8610
    12.9909  14.1784

          k = 0.3500 0.2500 0.3500 (  5419 PWs)   bands (ev):

   -47.2480 -23.5528 -23.4874 -23.4872  -7.2495  -6.8564  -6.7889  -6.1340
    -6.1305  -5.9905  -5.9139  -5.9071   2.5573   5.4780   5.4813   5.6532
     6.1493   6.4520   7.5036   8.6778   8.7240   9.1200  12.3771  12.7148
    12.8870  14.2086

          k =-0.2500 0.4500 0.3500 (  5428 PWs)   bands (ev):

   -47.2479 -23.5737 -23.4870 -23.4742  -7.0884  -6.9410  -6.8217  -6.1429
    -6.1113  -5.9772  -5.9216  -5.8334   2.5510   5.2259   5.3819   5.5960
     6.0414   6.5370   7.1196   8.6362   8.8617   9.0948  12.4805  12.8552
    13.0556  14.5551

          k = 0.4500 0.2500 0.3500 (  5428 PWs)   bands (ev):

   -47.2479 -23.5525 -23.4949 -23.4870  -7.2442  -6.8395  -6.7735  -6.1302
    -6.1188  -5.9453  -5.9086  -5.8873   2.5799   5.3542   5.4338   5.4750
     6.0346   6.4483   7.1688   8.7089   8.7287   9.2331  12.5439  12.7520
    13.0183  14.5345

          k = 0.4500 0.2500 0.4500 (  5427 PWs)   bands (ev):

   -47.2477 -23.5521 -23.4946 -23.4945  -7.2546  -6.7937  -6.7842  -6.1245
    -6.1074  -5.9035  -5.8907  -5.8599   2.6349   5.2853   5.3425   5.3567
     5.8330   6.4215   6.7744   8.7414   8.7460   9.3921  12.7429  12.7955
    13.0891  14.8416

          k =-0.3500 0.4500 0.3500 (  5427 PWs)   bands (ev):

   -47.2477 -23.5731 -23.4865 -23.4864  -7.0233  -6.9650  -6.8766  -6.1247
    -6.1011  -5.9095  -5.8337  -5.7894   2.8245   4.9922   5.2404   5.2959
     5.8944   6.1047   6.4282   8.9772   9.1106   9.1313  12.6712  12.9294
    13.0516  14.9264

          k = 0.4500 0.3500 0.4500 (  5435 PWs)   bands (ev):

   -47.2475 -23.5647 -23.4941 -23.4940  -7.1371  -6.8713  -6.8611  -6.1056
    -6.1034  -5.8380  -5.7895  -5.7853   3.0508   4.9583   4.9603   5.2286
     5.8312   5.8931   5.9392   9.0703   9.0795   9.3855  12.8897  12.9464
    13.0722  15.2618

     the Fermi energy is     9.4332 ev

!    total energy              =    -364.94883992 Ry
     Harris-Foulkes estimate   =    -364.94883993 Ry
     estimated scf accuracy    <          5.5E-09 Ry

     The total energy is the sum of the following terms:

     one-electron contribution =     -91.96514708 Ry
     hartree contribution      =      73.74053828 Ry
     xc contribution           =     -85.63343839 Ry
     ewald contribution        =    -261.09755219 Ry
     smearing contrib. (-TS)   =       0.00675945 Ry

     convergence has been achieved in   6 iterations

     Forces acting on atoms (cartesian axes, Ry/au):

     atom    1 type  1   force =     0.00000000    0.01452708    0.00000000
     atom    2 type  2   force =     0.00000000   -0.01366415    0.00000000
     atom    3 type  3   force =     0.00000000    0.00520009    0.00000000
     atom    4 type  3   force =     0.00000000   -0.01126311    0.00000000
     atom    5 type  3   force =     0.00000000    0.00520009    0.00000000

     Total force =     0.019174     Total SCF correction =     0.000119


     Computing stress (Cartesian axis) and pressure

          total   stress  (Ry/bohr**3)                   (kbar)     P=  -76.70
  -0.00059829   0.00000000   0.00000000        -88.01      0.00      0.00
   0.00000000  -0.00036758   0.00000000          0.00    -54.07      0.00
   0.00000000   0.00000000  -0.00059829          0.00      0.00    -88.01


     number of scf cycles    =   2
     number of bfgs steps    =   1

     energy   old            =    -364.9483247199 Ry
     energy   new            =    -364.9488399241 Ry

     CASE: energy  _new < energy  _old


     WARNING: bfgs curvature condition failed, Theta= 1.000
     new trust radius        =       0.0178757987 bohr
     new conv_thr            =       0.0000000005 Ry


ATOMIC_POSITIONS (crystal)
Pb       0.000000000   0.000000000   0.000000000    0   0   0
Ti       0.500000000   0.543539016   0.500000000
O        0.500000000   0.501844697   0.000000000
O        0.500000000  -0.003784127   0.500000000
O        0.000000000   0.501844697   0.500000000



     Writing output data file PbTiO3.save/
     NEW-OLD atomic charge density approx. for the potential

     Check: negative core charge=   -0.000005

     total cpu time spent up to now is      851.6 secs

     Self-consistent Calculation

     iteration #  1     ecut=    80.00 Ry     beta= 0.70
     Davidson diagonalization with overlap
     ethr =  1.00E-06,  avg # of iterations =  4.0

     Threshold (ethr) on eigenvalues was too large:
     Diagonalizing with lowered threshold

     Davidson diagonalization with overlap
     ethr =  4.99E-08,  avg # of iterations =  1.4

     total cpu time spent up to now is      940.6 secs

     total energy              =    -364.94925248 Ry
     Harris-Foulkes estimate   =    -364.94926200 Ry
     estimated scf accuracy    <       0.00002208 Ry

     iteration #  2     ecut=    80.00 Ry     beta= 0.70
     Davidson diagonalization with overlap
     ethr =  5.02E-08,  avg # of iterations =  3.7

     total cpu time spent up to now is      980.6 secs

     total energy              =    -364.94924493 Ry
     Harris-Foulkes estimate   =    -364.94927318 Ry
     estimated scf accuracy    <       0.00008069 Ry

     iteration #  3     ecut=    80.00 Ry     beta= 0.70
     Davidson diagonalization with overlap
     ethr =  5.02E-08,  avg # of iterations =  3.6

     total cpu time spent up to now is     1018.4 secs

     total energy              =    -364.94925964 Ry
     Harris-Foulkes estimate   =    -364.94926068 Ry
     estimated scf accuracy    <       0.00000397 Ry

     iteration #  4     ecut=    80.00 Ry     beta= 0.70
     Davidson diagonalization with overlap
     ethr =  9.02E-09,  avg # of iterations =  2.8

     total cpu time spent up to now is     1051.6 secs

     total energy              =    -364.94926009 Ry
     Harris-Foulkes estimate   =    -364.94926037 Ry
     estimated scf accuracy    <       0.00000061 Ry

     iteration #  5     ecut=    80.00 Ry     beta= 0.70
     Davidson diagonalization with overlap
     ethr =  1.40E-09,  avg # of iterations =  3.2

     total cpu time spent up to now is     1087.6 secs

     total energy              =    -364.94926024 Ry
     Harris-Foulkes estimate   =    -364.94926032 Ry
     estimated scf accuracy    <       0.00000023 Ry

     iteration #  6     ecut=    80.00 Ry     beta= 0.70
     Davidson diagonalization with overlap
     ethr =  5.22E-10,  avg # of iterations =  2.9

     total cpu time spent up to now is     1119.1 secs

     total energy              =    -364.94926028 Ry
     Harris-Foulkes estimate   =    -364.94926028 Ry
     estimated scf accuracy    <          4.2E-09 Ry

     iteration #  7     ecut=    80.00 Ry     beta= 0.70
     Davidson diagonalization with overlap
     ethr =  9.51E-12,  avg # of iterations =  4.0

     total cpu time spent up to now is     1165.2 secs

     total energy              =    -364.94926028 Ry
     Harris-Foulkes estimate   =    -364.94926028 Ry
     estimated scf accuracy    <          7.4E-10 Ry

     iteration #  8     ecut=    80.00 Ry     beta= 0.70
     Davidson diagonalization with overlap
     ethr =  1.68E-12,  avg # of iterations =  2.5

     total cpu time spent up to now is     1199.2 secs

     End of self-consistent calculation

          k = 0.0500 0.0500 0.0500 (  5428 PWs)   bands (ev):

   -47.2530 -23.5369 -23.4602 -23.4601  -7.8734  -7.0232  -6.9116  -6.1377
    -6.1221  -6.1218  -5.9802  -5.9556   3.3832   6.0711   6.1076   6.2139
     7.9555   7.9772   8.3560   8.3578   8.5994   8.6330  11.4240  11.8155
    11.8222  13.3362

          k = 0.0500 0.0500 0.1500 (  5403 PWs)   bands (ev):

   -47.2528 -23.5367 -23.4679 -23.4599  -7.8039  -6.9919  -6.8872  -6.1433
    -6.1278  -6.1215  -6.0065  -5.9582   3.1574   6.1176   6.1839   6.3450
     7.7374   7.9270   8.2340   8.3502   8.4776   8.5845  11.7118  11.8252
    11.9264  13.5248

          k = 0.0500 0.0500 0.2500 (  5408 PWs)   bands (ev):

   -47.2526 -23.5362 -23.4804 -23.4594  -7.6881  -6.9359  -6.8482  -6.1526
    -6.1371  -6.1209  -6.0584  -5.9584   2.8592   6.0838   6.2985   6.4020
     7.5922   7.7253   8.1443   8.2745   8.4077   8.6350  11.8255  12.1334
    12.2350  13.5379

          k = 0.0500 0.0500 0.3500 (  5405 PWs)   bands (ev):

   -47.2523 -23.5357 -23.4928 -23.4590  -7.5675  -6.8699  -6.8112  -6.1656
    -6.1480  -6.1203  -6.1133  -5.9599   2.6155   5.7578   6.4813   6.5768
     7.3446   7.4566   8.1112   8.1968   8.5055   8.9207  11.8271  12.5127
    12.5950  13.0554

          k = 0.0500 0.0500 0.4500 (  5400 PWs)   bands (ev):

   -47.2522 -23.5354 -23.5005 -23.4587  -7.4902  -6.8182  -6.7935  -6.1876
    -6.1572  -6.1365  -6.1199  -5.9621   2.4851   5.5049   6.6880   6.8249
     7.0705   7.1428   8.1186   8.1637   8.5603   9.2834  11.8142  12.3978
    12.7363  12.8459

          k = 0.0500 0.1500 0.1500 (  5403 PWs)   bands (ev):

   -47.2527 -23.5446 -23.4676 -23.4596  -7.7224  -6.9776  -6.8615  -6.1433
    -6.1355  -6.1265  -5.9999  -5.9801   2.9829   6.0751   6.1844   6.4731
     7.5155   7.7486   8.0861   8.4016   8.4404   8.6739  11.7134  12.0561
    12.1339  13.6213

          k = 0.0500 0.1500 0.2500 (  5394 PWs)   bands (ev):

   -47.2524 -23.5441 -23.4800 -23.4591  -7.6110  -6.9282  -6.8313  -6.1550
    -6.1427  -6.1261  -6.0309  -5.9738   2.7427   6.0186   6.2966   6.4462
     7.3415   7.5888   7.9769   8.1983   8.4461   8.7929  12.0452  12.1427
    12.3901  13.6913

          k = 0.0500 0.1500 0.3500 (  5400 PWs)   bands (ev):

   -47.2522 -23.5436 -23.4925 -23.4587  -7.4968  -6.8753  -6.7992  -6.1695
    -6.1499  -6.1259  -6.0566  -5.9745   2.5352   5.7491   6.3978   6.5449
     7.1123   7.4406   7.8994   8.2018   8.4254   8.9714  12.0500  12.5087
    12.7054  13.2068

          k = 0.0500 0.1500 0.4500 (  5407 PWs)   bands (ev):

   -47.2520 -23.5433 -23.5001 -23.4584  -7.4250  -6.8407  -6.7775  -6.1819
    -6.1569  -6.1257  -6.0645  -5.9801   2.4208   5.5078   6.5368   6.6820
     6.9393   7.2031   7.9334   8.2737   8.3942   9.1100  12.0336  12.7256
    12.7668  12.9315

          k = 0.0500 0.2500 0.2500 (  5400 PWs)   bands (ev):

   -47.2522 -23.5568 -23.4795 -23.4587  -7.4838  -6.9216  -6.7931  -6.1575
    -6.1471  -6.1307  -6.0141  -5.9849   2.5634   5.8985   6.2546   6.4130
     7.1322   7.3221   7.7765   8.1720   8.5996   8.9085  12.1176  12.4154
    12.6394  13.6864

          k = 0.0500 0.2500 0.3500 (  5414 PWs)   bands (ev):

   -47.2520 -23.5563 -23.4919 -23.4582  -7.3883  -6.8898  -6.7529  -6.1659
    -6.1490  -6.1321  -6.0242  -5.9667   2.4062   5.7178   6.1395   6.5156
     6.9593   7.2731   7.6956   7.9899   8.6699   8.9038  12.3888  12.5076
    12.8805  13.4680

          k = 0.0500 0.2500 0.4500 (  5407 PWs)   bands (ev):

   -47.2518 -23.5560 -23.4995 -23.4579  -7.3333  -6.8701  -6.7193  -6.1711
    -6.1553  -6.1337  -6.0181  -5.9647   2.3156   5.5017   6.1669   6.5341
     6.8703   7.3051   7.5995   8.0005   8.6347   8.8881  12.3907  12.7150
    13.0603  13.3088

          k = 0.0500 0.3500 0.3500 (  5407 PWs)   bands (ev):

   -47.2517 -23.5689 -23.4913 -23.4577  -7.2980  -6.8769  -6.6972  -6.1650
    -6.1521  -6.1316  -6.0500  -5.9143   2.2794   5.5397   5.9056   6.5212
     6.9095   7.1228   7.5787   7.9260   8.5337   9.0277  12.4757  12.7500
    13.0634  13.7375

          k = 0.0500 0.3500 0.4500 (  5403 PWs)   bands (ev):

   -47.2516 -23.5686 -23.4990 -23.4575  -7.2742  -6.8491  -6.6527  -6.1658
    -6.1539  -6.1356  -6.0576  -5.8846   2.2096   5.4231   5.7861   6.5865
     6.7479   7.3067   7.5060   7.7943   8.3019   9.1115  12.6929  12.7467
    13.2130  13.8045

          k = 0.0500 0.4500 0.4500 (  5392 PWs)   bands (ev):

   -47.2514 -23.5764 -23.4986 -23.4572  -7.2588  -6.8071  -6.6057  -6.1686
    -6.1532  -6.1324  -6.0865  -5.8396   2.1442   5.2505   5.6844   6.5909
     6.7290   7.2867   7.5315   7.7126   7.9777   9.2712  12.6833  12.9581
    13.3194  14.0806

          k = 0.1500 0.1500 0.1500 (  5404 PWs)   bands (ev):

   -47.2525 -23.5443 -23.4674 -23.4672  -7.6585  -6.9554  -6.8434  -6.1493
    -6.1403  -6.1251  -6.0013  -5.9795   2.8632   6.0687   6.1035   6.5662
     7.3728   7.4960   8.0567   8.4644   8.5330   8.5532  11.9181  12.1184
    12.1484  14.0792

          k = 0.1500 0.1500 0.2500 (  5407 PWs)   bands (ev):

   -47.2523 -23.5438 -23.4797 -23.4668  -7.5555  -6.9166  -6.8133  -6.1599
    -6.1414  -6.1208  -6.0157  -5.9743   2.6798   5.9988   6.1193   6.4584
     7.1566   7.2860   8.0644   8.3432   8.5383   8.7080  12.0861  12.2614
    12.3838  13.8747

          k = 0.1500 0.1500 0.3500 (  5411 PWs)   bands (ev):

   -47.2520 -23.5433 -23.4921 -23.4664  -7.4541  -6.8733  -6.7813  -6.1698
    -6.1357  -6.1135  -6.0358  -5.9748   2.5106   5.7526   6.1467   6.4036
     6.9363   7.3250   7.8500   8.3821   8.5463   8.8603  12.0318  12.5648
    12.6931  13.4096

          k = 0.1500 0.1500 0.4500 (  5406 PWs)   bands (ev):

   -47.2519 -23.5430 -23.4998 -23.4661  -7.3933  -6.8441  -6.7594  -6.1741
    -6.1315  -6.1053  -6.0492  -5.9810   2.4136   5.5121   6.1664   6.4606
     6.8174   7.4362   7.6268   8.4580   8.5248   8.9276  11.9702  12.7629
    12.9074  13.1888

          k = 0.1500 0.2500 0.2500 (  5399 PWs)   bands (ev):

   -47.2520 -23.5565 -23.4792 -23.4663  -7.4272  -6.9157  -6.7988  -6.1619
    -6.1494  -6.1071  -5.9963  -5.9681   2.5600   5.8703   6.0067   6.2994
     6.8862   7.0910   8.0005   8.3792   8.6368   8.7894  12.1569  12.4189
    12.5973  13.6948

          k = 0.1500 0.2500 0.3500 (  5405 PWs)   bands (ev):

   -47.2518 -23.5560 -23.4916 -23.4659  -7.3385  -6.9001  -6.7647  -6.1643
    -6.1405  -6.0965  -5.9974  -5.9512   2.4484   5.7070   5.9798   6.1197
     6.6072   7.1204   8.0024   8.2412   8.6434   8.8286  12.2652  12.5395
    12.8224  13.6541

          k = 0.1500 0.2500 0.4500 (  5414 PWs)   bands (ev):

[...]

   -47.2146 -23.5708 -23.4567 -23.4566  -7.5453  -7.1382  -6.9821  -5.9203
    -5.9197  -5.8576  -5.7404  -5.5832   2.5707   5.5864   5.5894   6.0096
     6.6202   6.7143   7.9614   8.3419   8.5555   8.6642  12.1610  12.6035
    12.7515  14.0737

          k = 0.2500 0.2500 0.3500 (  5411 PWs)   bands (ev):

   -47.2144 -23.5702 -23.4688 -23.4562  -7.4431  -7.1273  -7.0068  -5.9187
    -5.9052  -5.8340  -5.6946  -5.5783   2.4730   5.4526   5.4919   5.7655
     6.3628   6.7157   7.9768   8.3801   8.5222   8.6712  12.3291  12.6368
    12.8660  14.2471

          k = 0.2500 0.2500 0.4500 (  5411 PWs)   bands (ev):

   -47.2142 -23.5699 -23.4763 -23.4559  -7.3857  -7.1022  -7.0334  -5.9170
    -5.8952  -5.8178  -5.6569  -5.5874   2.4096   5.3299   5.4079   5.6787
     6.2439   6.7834   7.8695   8.3737   8.4728   8.7158  12.4911  12.6294
    13.0090  14.4714

          k = 0.2500 0.3500 0.3500 (  5419 PWs)   bands (ev):

   -47.2141 -23.5828 -23.4683 -23.4557  -7.3906  -7.1338  -6.9415  -5.9107
    -5.8937  -5.8194  -5.6739  -5.5498   2.5350   5.2201   5.2804   5.5978
     6.0478   6.5684   7.7673   8.4717   8.4933   8.8259  12.3930  12.8679
    13.0119  14.4317

          k = 0.2500 0.3500 0.4500 (  5428 PWs)   bands (ev):

   -47.2140 -23.5825 -23.4758 -23.4554  -7.3585  -7.1051  -6.9570  -5.9069
    -5.8822  -5.8062  -5.6378  -5.5408   2.5180   5.1494   5.1658   5.4656
     5.9174   6.6085   7.5273   8.4549   8.4928   8.9307  12.6085  12.8234
    13.1151  14.7732

          k = 0.2500 0.4500 0.4500 (  5427 PWs)   bands (ev):

   -47.2139 -23.5902 -23.4754 -23.4551  -7.3551  -7.1072  -6.8933  -5.9041
    -5.8705  -5.7977  -5.6269  -5.5124   2.5833   4.9790   5.0603   5.3616
     5.7490   6.5622   7.2365   8.4729   8.5156   9.0678  12.6570  13.0216
    13.1968  14.9492

          k = 0.3500 0.3500 0.3500 (  5415 PWs)   bands (ev):

   -47.2139 -23.5823 -23.4678 -23.4677  -7.2921  -7.1528  -6.9769  -5.8887
    -5.8867  -5.7740  -5.6094  -5.5323   2.5672   5.0567   5.1475   5.3336
     6.0409   6.1630   7.3105   8.7013   8.7388   8.8624  12.5592  12.9380
    12.9798  14.8020

          k = 0.3500 0.3500 0.4500 (  5427 PWs)   bands (ev):

   -47.2138 -23.5819 -23.4753 -23.4675  -7.2494  -7.1406  -7.0023  -5.8857
    -5.8714  -5.7433  -5.5689  -5.5248   2.5729   4.9703   5.1001   5.1963
     5.9007   6.1394   6.9282   8.7615   8.8351   8.9532  12.7478  12.8987
    13.0660  15.1816

          k = 0.3500 0.4500 0.4500 (  5435 PWs)   bands (ev):

   -47.2136 -23.5896 -23.4749 -23.4672  -7.2531  -7.1540  -6.9345  -5.8771
    -5.8655  -5.7323  -5.5431  -5.4938   2.7396   4.7964   4.9128   5.0877
     5.7333   6.0758   6.5469   8.8613   8.8840   9.0633  12.8269  13.0537
    13.1494  15.4014

          k = 0.4500 0.4500 0.4500 (  5457 PWs)   bands (ev):

   -47.2135 -23.5893 -23.4746 -23.4746  -7.1919  -7.1786  -6.9587  -5.8665
    -5.8564  -5.6912  -5.4926  -5.4824   2.8219   4.7830   4.8351   4.9767
     5.7004   5.8450   6.0209   9.0488   9.0498   9.0710  12.9781  13.1190
    13.1220  15.7955

          k =-0.0500 0.1500 0.0500 (  5403 PWs)   bands (ev):

   -47.2156 -23.5598 -23.4381 -23.4381  -7.9986  -7.1817  -6.9997  -5.9187
    -5.9186  -5.8890  -5.8544  -5.6107   3.2969   5.8800   5.8944   6.6030
     7.5405   7.5553   8.0027   8.1298   8.3579   8.3772  11.4107  12.3715
    12.4234  13.4272

          k =-0.0500 0.2500 0.0500 (  5408 PWs)   bands (ev):

   -47.2154 -23.5726 -23.4376 -23.4376  -7.8845  -7.1527  -6.9616  -5.9275
    -5.9231  -5.8882  -5.8421  -5.6426   3.0045   5.8949   5.9143   6.3315
     7.3882   7.3990   8.0878   8.1046   8.3874   8.5722  11.4129  12.6754
    12.7408  13.4394

          k =-0.0500 0.3500 0.0500 (  5405 PWs)   bands (ev):

   -47.2151 -23.5854 -23.4372 -23.4371  -7.7676  -7.1223  -6.9225  -5.9361
    -5.9282  -5.8875  -5.8289  -5.6759   2.7516   5.7238   5.9432   6.1062
     7.2684   7.2739   8.0331   8.2247   8.4201   8.9787  11.4147  12.9643
    12.9673  13.0659

          k =-0.0500 0.4500 0.0500 (  5400 PWs)   bands (ev):

   -47.2150 -23.5932 -23.4369 -23.4369  -7.6938  -7.1028  -6.8977  -5.9413
    -5.9315  -5.8870  -5.8205  -5.6973   2.6101   5.4864   5.9576   6.0902
     7.2004   7.2088   7.9971   8.2764   8.4409   9.3675  11.4145  12.3463
    13.1324  13.2535

          k = 0.1500 0.0500 0.1500 (  5403 PWs)   bands (ev):

   -47.2155 -23.5513 -23.4458 -23.4456  -7.9238  -7.1735  -7.0208  -5.9375
    -5.9181  -5.8948  -5.8229  -5.5927   3.0702   5.8922   6.0542   6.5941
     7.3861   7.4754   7.7811   8.1704   8.2865   8.5776  11.8414  12.0796
    12.1968  14.1451

          k =-0.0500 0.2500 0.1500 (  5394 PWs)   bands (ev):

   -47.2152 -23.5723 -23.4452 -23.4373  -7.8197  -7.1495  -6.9559  -5.9281
    -5.9172  -5.8938  -5.8346  -5.6271   2.8837   5.7603   5.9759   6.4580
     7.1322   7.3624   7.7781   8.1772   8.2452   8.7945  11.6595  12.5884
    12.7467  13.7377

          k = 0.2500 0.0500 0.1500 (  5394 PWs)   bands (ev):

   -47.2152 -23.5508 -23.4580 -23.4453  -7.8035  -7.1533  -7.0262  -5.9485
    -5.9162  -5.8914  -5.7955  -5.6006   2.7977   5.8563   6.0870   6.5163
     7.1475   7.3483   7.8021   8.1428   8.2458   8.7580  12.0854  12.1814
    12.3097  14.1081

          k =-0.0500 0.3500 0.1500 (  5400 PWs)   bands (ev):

   -47.2150 -23.5850 -23.4447 -23.4369  -7.7111  -7.1252  -6.9124  -5.9362
    -5.9097  -5.8933  -5.8291  -5.6496   2.6738   5.5544   5.9691   6.2612
     7.0346   7.2549   7.7760   8.1959   8.2597   9.1061  11.6526  12.8855
    13.0525  13.2243

          k = 0.3500 0.0500 0.1500 (  5400 PWs)   bands (ev):

   -47.2150 -23.5502 -23.4702 -23.4448  -7.6746  -7.1318  -7.0397  -5.9551
    -5.9115  -5.8863  -5.7606  -5.6245   2.5666   5.6103   6.1757   6.5558
     6.8928   7.3788   7.5688   8.1657   8.2626   9.0128  12.1316  12.4480
    12.5899  13.7759

          k =-0.0500 0.4500 0.1500 (  5407 PWs)   bands (ev):

   -47.2149 -23.5928 -23.4444 -23.4366  -7.6445  -7.1093  -6.8832  -5.9412
    -5.9051  -5.8930  -5.8255  -5.6640   2.5525   5.3526   5.9471   6.2181
     6.9879   7.1996   7.7991   8.1892   8.2741   9.3400  11.6448  12.7482
    13.0719  13.2534

          k = 0.4500 0.0500 0.1500 (  5407 PWs)   bands (ev):

   -47.2149 -23.5499 -23.4778 -23.4445  -7.5889  -7.1116  -7.0598  -5.9572
    -5.9083  -5.8827  -5.7153  -5.6656   2.4403   5.4006   6.2998   6.5306
     6.9055   7.1673   7.4968   8.1778   8.2762   9.2373  12.1097  12.6326
    12.8310  13.3554

          k = 0.2500 0.0500 0.2500 (  5400 PWs)   bands (ev):

   -47.2150 -23.5503 -23.4576 -23.4574  -7.6921  -7.1323  -7.0414  -5.9493
    -5.9144  -5.8744  -5.7658  -5.6050   2.5658   5.8874   5.9438   6.4921
     7.0026   7.0468   7.9229   7.9576   8.4248   8.8484  12.2023  12.2725
    12.4252  14.1869

          k =-0.0500 0.3500 0.2500 (  5414 PWs)   bands (ev):

   -47.2148 -23.5844 -23.4569 -23.4364  -7.6265  -7.1194  -6.8942  -5.9347
    -5.9044  -5.8909  -5.8170  -5.6115   2.5528   5.3911   6.0773   6.2264
     6.8414   7.0430   7.4970   7.9548   8.4388   9.0992  12.0050  12.9430
    13.0707  13.5948

          k = 0.3500 0.0500 0.2500 (  5414 PWs)   bands (ev):

   -47.2148 -23.5497 -23.4697 -23.4570  -7.5759  -7.1116  -7.0592  -5.9486
    -5.9060  -5.8525  -5.7337  -5.6236   2.3562   5.6160   5.9870   6.4539
     6.8527   7.0891   7.6383   8.0502   8.5278   8.9091  12.2328  12.5100
    12.6375  14.0283

          k =-0.0500 0.4500 0.2500 (  5407 PWs)   bands (ev):

   -47.2146 -23.5922 -23.4566 -23.4361  -7.5770  -7.1036  -6.8560  -5.9396
    -5.9021  -5.8761  -5.8243  -5.6125   2.4619   5.1933   6.0294   6.1918
     6.8098   6.9911   7.4495   7.9811   8.4446   9.1779  11.9953  13.1120
    13.2557  13.3845

          k = 0.4500 0.0500 0.2500 (  5407 PWs)   bands (ev):

   -47.2146 -23.5494 -23.4772 -23.4567  -7.5010  -7.0947  -7.0763  -5.9473
    -5.8994  -5.8343  -5.6977  -5.6576   2.2366   5.3958   6.0850   6.3334
     6.9054   7.1811   7.3540   8.1320   8.5289   8.9570  12.2181  12.6776
    12.8380  13.8328

          k = 0.3500 0.0500 0.3500 (  5407 PWs)   bands (ev):

   -47.2145 -23.5492 -23.4692 -23.4691  -7.4804  -7.0917  -7.0730  -5.9425
    -5.8918  -5.8142  -5.7061  -5.6344   2.1561   5.4946   5.8321   6.4560
     6.7522   7.0556   7.6298   7.8763   8.7096   8.7867  12.4601  12.5722
    12.7331  14.0537

          k =-0.0500 0.4500 0.3500 (  5403 PWs)   bands (ev):

   -47.2144 -23.5915 -23.4687 -23.4357  -7.5324  -7.0661  -6.8295  -5.9384
    -5.9091  -5.8769  -5.7946  -5.5663   2.3770   5.0748   5.8994   6.2015
     6.5463   6.9322   7.3723   7.7385   8.4913   9.0809  12.3153  13.2162
    13.2851  13.9114

          k = 0.4500 0.0500 0.3500 (  5403 PWs)   bands (ev):

   -47.2144 -23.5489 -23.4767 -23.4688  -7.4254  -7.0811  -7.0749  -5.9393
    -5.8797  -5.7821  -5.6828  -5.6576   2.0376   5.3140   5.8470   6.4108
     6.7099   7.2108   7.4238   7.8848   8.5360   8.9198  12.5044  12.7241
    12.8463  13.9864

          k = 0.4500 0.0500 0.4500 (  5392 PWs)   bands (ev):

   -47.2142 -23.5485 -23.4763 -23.4763  -7.3893  -7.0680  -7.0670  -5.9352
    -5.8615  -5.7411  -5.6755  -5.6679   1.9172   5.1903   5.7926   6.5076
     6.5550   7.3330   7.4489   7.6855   8.2966   9.0743  12.7359  12.7691
    12.8565  13.9107

          k =-0.1500 0.2500 0.1500 (  5407 PWs)   bands (ev):

   -47.2151 -23.5719 -23.4450 -23.4449  -7.7550  -7.1469  -6.9578  -5.9312
    -5.9151  -5.8911  -5.8153  -5.6137   2.7968   5.7786   5.7938   6.4842
     7.0077   7.1412   7.7233   8.2213   8.3760   8.7801  11.8128  12.5374
    12.7246  14.0321

          k =-0.1500 0.3500 0.1500 (  5411 PWs)   bands (ev):

   -47.2149 -23.5846 -23.4445 -23.4444  -7.6530  -7.1301  -6.9113  -5.9378
    -5.9030  -5.8829  -5.8141  -5.6284   2.6310   5.5473   5.7198   6.3031
     6.9431   7.0591   7.6507   8.2464   8.3877   9.0237  11.7803  12.8376
    13.0261  13.4519

          k =-0.1500 0.4500 0.1500 (  5406 PWs)   bands (ev):

   -47.2147 -23.5925 -23.4441 -23.4441  -7.5919  -7.1197  -6.8783  -5.9413
    -5.8990  -5.8712  -5.8165  -5.6382   2.5309   5.3380   5.6704   6.2553
     6.9410   7.0242   7.6025   8.2589   8.3889   9.1679  11.7561  13.0321
    13.1292  13.2265

          k = 0.2500 0.1500 0.2500 (  5399 PWs)   bands (ev):

   -47.2149 -23.5581 -23.4573 -23.4571  -7.6332  -7.1345  -7.0229  -5.9380
    -5.9169  -5.8689  -5.7556  -5.5962   2.5722   5.7786   5.8313   6.1672
     6.8579   7.0301   7.8815   8.1814   8.4609   8.7468  12.2089  12.3849
    12.5403  14.2048

          k =-0.1500 0.3500 0.2500 (  5405 PWs)   bands (ev):

   -47.2146 -23.5840 -23.4566 -23.4440  -7.5653  -7.1299  -6.9068  -5.9329
    -5.9073  -5.8656  -5.7827  -5.5960   2.5572   5.3969   5.6941   6.1248
     6.5485   6.9625   7.7169   8.1799   8.5008   8.9102  12.0331  12.8642
    13.0179  13.7930

          k = 0.3500 0.1500 0.2500 (  5405 PWs)   bands (ev):

   -47.2146 -23.5576 -23.4694 -23.4567  -7.5197  -7.1183  -7.0454  -5.9365
    -5.9067  -5.8458  -5.7181  -5.6064   2.4024   5.5822   5.8119   6.0104
     6.6388   7.0771   7.8428   8.1701   8.5548   8.7340  12.2906  12.5106
    12.7268  14.1170

          k =-0.1500 0.4500 0.2500 (  5414 PWs)   bands (ev):

   -47.2145 -23.5918 -23.4563 -23.4437  -7.5186  -7.1226  -6.8660  -5.9351
    -5.9022  -5.8485  -5.7873  -5.5951   2.4916   5.2097   5.6146   6.0481
     6.5211   6.9358   7.6513   8.2072   8.5080   8.9315  12.0278  13.0559
    13.1886  13.6955

          k = 0.4500 0.1500 0.2500 (  5414 PWs)   bands (ev):

   -47.2145 -23.5572 -23.4769 -23.4564  -7.4479  -7.0987  -7.0696  -5.9349
    -5.8991  -5.8280  -5.6796  -5.6327   2.3018   5.3834   5.8141   5.9702
     6.5491   7.1598   7.7213   8.2040   8.5523   8.7276  12.3048  12.6329
    12.9094  14.1089

          k = 0.3500 0.1500 0.3500 (  5413 PWs)   bands (ev):

   -47.2144 -23.5570 -23.4689 -23.4688  -7.4188  -7.1067  -7.0703  -5.9297
    -5.8908  -5.8048  -5.6837  -5.6096   2.2448   5.4774   5.7076   5.8820
     6.3959   7.0452   7.9289   8.1038   8.4694   8.7920  12.4357  12.6136
    12.7898  14.3483

          k =-0.1500 0.4500 0.3500 (  5415 PWs)   bands (ev):

   -47.2142 -23.5912 -23.4684 -23.4432  -7.4703  -7.0945  -6.8533  -5.9302
    -5.8955  -5.8499  -5.7439  -5.5536   2.4494   5.0734   5.6320   5.8595
     6.0230   6.9935   7.7344   8.0358   8.3380   8.9724  12.3450  13.0965
    13.2088  14.2151

          k = 0.4500 0.1500 0.3500 (  5415 PWs)   bands (ev):

   -47.2142 -23.5567 -23.4763 -23.4685  -7.3592  -7.0960  -7.0856  -5.9262
    -5.8781  -5.7728  -5.6553  -5.6265   2.1461   5.3024   5.7403   5.8446
     6.2565   7.0970   7.8529   8.1231   8.2729   8.9113  12.5279  12.6935
    12.9048  14.5008

          k = 0.4500 0.1500 0.4500 (  5405 PWs)   bands (ev):

   -47.2141 -23.5563 -23.4760 -23.4760  -7.3141  -7.0902  -7.0888  -5.9221
    -5.8604  -5.7325  -5.6401  -5.6310   2.0457   5.1784   5.7487   5.9107
     6.0173   7.1119   7.8110   8.0491   8.0807   9.0709  12.7190  12.7616
    12.9118  14.4711

          k =-0.2500 0.3500 0.2500 (  5411 PWs)   bands (ev):

   -47.2144 -23.5834 -23.4562 -23.4561  -7.4703  -7.1420  -6.9239  -5.9210
    -5.9050  -5.8404  -5.7280  -5.5714   2.5529   5.3699   5.4009   5.8208
     6.3475   6.6468   7.8920   8.4025   8.6269   8.6563  12.1597  12.8674
    12.9590  14.0829

          k =-0.2500 0.4500 0.2500 (  5411 PWs)   bands (ev):

   -47.2142 -23.5912 -23.4559 -23.4558  -7.4319  -7.1444  -6.8775  -5.9212
    -5.8972  -5.8254  -5.7228  -5.5646   2.5334   5.2090   5.2886   5.7051
     6.2751   6.6227   7.7923   8.4262   8.5905   8.7039  12.1921  13.0543
    13.1070  14.1505

          k = 0.3500 0.2500 0.3500 (  5419 PWs)   bands (ev):

   -47.2141 -23.5697 -23.4684 -23.4683  -7.3377  -7.1303  -7.0437  -5.9090
    -5.8889  -5.7901  -5.6466  -5.5705   2.3988   5.3582   5.4291   5.4702
     6.2164   6.4997   7.7776   8.4986   8.5200   8.8061  12.4501  12.7397
    12.8818  14.5474

          k =-0.2500 0.4500 0.3500 (  5428 PWs)   bands (ev):

   -47.2140 -23.5906 -23.4679 -23.4553  -7.3707  -7.1371  -6.8868  -5.9091
    -5.8836  -5.8079  -5.6627  -5.5321   2.5667   5.0540   5.1884   5.4590
     5.9196   6.5317   7.5511   8.4800   8.5115   8.9204  12.4549  13.0459
    13.1255  14.6049

          k = 0.4500 0.2500 0.3500 (  5428 PWs)   bands (ev):

   -47.2140 -23.5693 -23.4758 -23.4680  -7.2762  -7.1183  -7.0751  -5.9054
    -5.8753  -5.7587  -5.6115  -5.5756   2.3424   5.2608   5.3345   5.4385
     6.0513   6.5204   7.5070   8.5203   8.5414   8.9134  12.6181  12.7369
    12.9803  14.8770

          k = 0.4500 0.2500 0.4500 (  5427 PWs)   bands (ev):

   -47.2139 -23.5690 -23.4755 -23.4755  -7.2022  -7.1257  -7.1083  -5.9009
    -5.8588  -5.7186  -5.5828  -5.5729   2.2855   5.1440   5.3797   5.3933
     5.8540   6.4697   7.1580   8.5649   8.5709   9.0655  12.7716  12.8275
    12.9748  15.1814

          k =-0.3500 0.4500 0.3500 (  5427 PWs)   bands (ev):

   -47.2138 -23.5900 -23.4675 -23.4674  -7.2806  -7.1664  -6.9167  -5.8853
    -5.8763  -5.7625  -5.5869  -5.5091   2.6784   4.9115   4.9869   5.1895
     5.8476   6.1485   6.9918   8.7761   8.7908   8.9482  12.6536  13.0672
    13.0967  15.0307

          k = 0.4500 0.3500 0.4500 (  5435 PWs)   bands (ev):

   -47.2136 -23.5815 -23.4750 -23.4749  -7.1778  -7.1590  -7.0352  -5.8796
    -5.8573  -5.7027  -5.5266  -5.5165   2.5851   4.9852   5.0293   5.0763
     5.8450   5.9474   6.4722   8.8981   8.9095   9.0606  12.9028  12.9828
    13.0356  15.5451

     the Fermi energy is     9.3450 ev

!    total energy              =    -364.96051338 Ry
     Harris-Foulkes estimate   =    -364.96051338 Ry
     estimated scf accuracy    <          9.3E-12 Ry

     The total energy is the sum of the following terms:

     one-electron contribution =     -96.27320916 Ry
     hartree contribution      =      75.93345113 Ry
     xc contribution           =     -85.73208238 Ry
     ewald contribution        =    -258.89495928 Ry
     smearing contrib. (-TS)   =       0.00628631 Ry

     convergence has been achieved in   8 iterations

     Forces acting on atoms (cartesian axes, Ry/au):

     atom    1 type  1   force =     0.00000000    0.00005472    0.00000000
     atom    2 type  2   force =     0.00000000    0.00002465    0.00000000
     atom    3 type  3   force =     0.00000000    0.00005741    0.00000000
     atom    4 type  3   force =     0.00000000   -0.00019420    0.00000000
     atom    5 type  3   force =     0.00000000    0.00005741    0.00000000

     Total force =     0.000212     Total SCF correction =     0.000010


     Computing stress (Cartesian axis) and pressure

          total   stress  (Ry/bohr**3)                   (kbar)     P=  -38.49
  -0.00042369   0.00000000   0.00000000        -62.33      0.00      0.00
   0.00000000   0.00006250   0.00000000          0.00      9.19      0.00
   0.00000000   0.00000000  -0.00042369          0.00      0.00    -62.33


     bfgs converged in  23 scf cycles and  22 bfgs steps
     (criteria: energy <  1.0E-04 Ry, force <  1.0E-03 Ry/Bohr)

     End of BFGS Geometry Optimization

     Final energy   =    -364.9605133814 Ry
Begin final coordinates

ATOMIC_POSITIONS (crystal)
Pb       0.000000000   0.000000000   0.000000000    0   0   0
Ti       0.500000000   0.447227385   0.500000000
O        0.500000000   0.377644533   0.000000000
O        0.500000000  -0.117628149   0.500000000
O        0.000000000   0.377644533   0.500000000
End final coordinates



     Writing output data file PbTiO3.save/

     init_run     :     11.91s CPU     15.89s WALL (       1 calls)
     electrons    :   6282.30s CPU   8718.72s WALL (      23 calls)
     update_pot   :      8.57s CPU      8.88s WALL (      22 calls)
     forces       :    127.79s CPU    144.15s WALL (      23 calls)
     stress       :    332.25s CPU    360.39s WALL (      23 calls)

     Called by init_run:
     wfcinit      :      8.97s CPU     12.59s WALL (       1 calls)
     potinit      :      0.28s CPU      0.30s WALL (       1 calls)
     hinit0       :      1.97s CPU      1.99s WALL (       1 calls)

     Called by electrons:
     c_bands      :   5412.33s CPU   7368.41s WALL (     213 calls)
     sum_band     :    689.12s CPU   1106.40s WALL (     213 calls)
     v_of_rho     :     46.08s CPU     49.22s WALL (     229 calls)
     newd         :    147.60s CPU    212.78s WALL (     229 calls)
     mix_rho      :      4.03s CPU      4.72s WALL (     213 calls)

     Called by c_bands:
     init_us_2    :     89.11s CPU    117.45s WALL (   35475 calls)
     cegterg      :   5145.37s CPU   7077.78s WALL (   15975 calls)

     Called by sum_band:
     sum_band:bec :      1.01s CPU      1.41s WALL (   15975 calls)
     addusdens    :    190.25s CPU    251.02s WALL (     213 calls)

     Called by *egterg:
     h_psi        :   2689.72s CPU   4374.40s WALL (   70318 calls)
     s_psi        :    567.10s CPU    628.21s WALL (   70318 calls)
     g_psi        :     49.75s CPU     65.76s WALL (   54268 calls)
     cdiaghg      :     90.44s CPU    122.08s WALL (   68068 calls)

     Called by h_psi:
     h_psi:pot    :   2672.88s CPU   4345.51s WALL (   70318 calls)
     h_psi:calbec :    572.94s CPU    634.25s WALL (   70318 calls)
     vloc_psi     :   1515.44s CPU   3079.76s WALL (   70318 calls)
     add_vuspsi   :    579.41s CPU    625.19s WALL (   70318 calls)

     General routines
     calbec       :    883.63s CPU    970.53s WALL (   94918 calls)
     fft          :     20.41s CPU     22.96s WALL (    3535 calls)
     ffts         :      0.49s CPU      0.80s WALL (     442 calls)
     fftw         :   1562.76s CPU   3204.61s WALL ( 2772352 calls)
     interpolate  :      1.74s CPU      2.28s WALL (     229 calls)

     Parallel routines

     PWSCF        :      1h52m CPU      2h34m WALL


   This run was terminated on:   2: 9:57  15May2020            

=------------------------------------------------------------------------------=
   JOB DONE.
=------------------------------------------------------------------------------=
