
     Program PWSCF v.6.4.1 starts on 13May2020 at 14:13:15 

     This program is part of the open-source Quantum ESPRESSO suite
     for quantum simulation of materials; please cite
         "P. Giannozzi et al., J. Phys.:Condens. Matter 21 395502 (2009);
         "P. Giannozzi et al., J. Phys.:Condens. Matter 29 465901 (2017);
          URL http://www.quantum-espresso.org", 
     in publications or presentations arising from this work. More details at
     http://www.quantum-espresso.org/quote

     Parallel version (MPI & OpenMP), running on       1 processor cores
     Number of MPI processes:                 1
     Threads/MPI process:                     1

     MPI processes distributed on     1 nodes
     Reading input from PTO_7.49_10_0.53.pw.in
Warning: card  &CELL ignored
Warning: card   CELL_DYNAMICS = 'BFGS', ignored
Warning: card  / ignored

     Current dimensions of program PWSCF are:
     Max number of different atomic species (ntypx) = 10
     Max number of k-points (npk) =  40000
     Max angular momentum in pseudopotentials (lmaxx) =  3
     Message from routine read_upf::
     Pseudo file Pb.pbe-dn-rrkjus_psl.0.2.2.UPF has been fixed on the fly.
To avoid this message in the future, permanently fix 
 your pseudo files following these instructions: 
https://gitlab.com/QEF/q-e/blob/master/upftools/how_to_fix_upf.md
     Message from routine read_upf::
     Pseudo file O.pbe-n-rrkjus_psl.0.1.UPF has been fixed on the fly.
To avoid this message in the future, permanently fix 
 your pseudo files following these instructions: 
https://gitlab.com/QEF/q-e/blob/master/upftools/how_to_fix_upf.md
               file Pb.pbe-dn-rrkjus_psl.0.2.2.UPF: wavefunction(s)  6S renormalized

     Subspace diagonalization in iterative solution of the eigenvalue problem:
     a serial algorithm will be used

 
     G-vector sticks info
     --------------------
     sticks:   dense  smooth     PW     G-vecs:    dense   smooth      PW
     Sum        3569    1433    421               160467    40651    6235
 


     bravais-lattice index     =            1
     lattice parameter (alat)  =       7.4900  a.u.
     unit-cell volume          =     420.1897 (a.u.)^3
     number of atoms/cell      =            5
     number of atomic types    =            3
     number of electrons       =        44.00
     number of Kohn-Sham states=           26
     kinetic-energy cutoff     =      80.0000  Ry
     charge density cutoff     =     800.0000  Ry
     convergence threshold     =      1.0E-08
     mixing beta               =       0.7000
     number of iterations used =            8  plain     mixing
     Exchange-correlation      = PBE ( 1  4  3  4 0 0)
     nstep                     =           50


     celldm(1)=   7.490000  celldm(2)=   0.000000  celldm(3)=   0.000000
     celldm(4)=   0.000000  celldm(5)=   0.000000  celldm(6)=   0.000000

     crystal axes: (cart. coord. in units of alat)
               a(1) = (   1.000000   0.000000   0.000000 )  
               a(2) = (   0.000000   1.000000   0.000000 )  
               a(3) = (   0.000000   0.000000   1.000000 )  

     reciprocal axes: (cart. coord. in units 2 pi/alat)
               b(1) = (  1.000000  0.000000  0.000000 )  
               b(2) = (  0.000000  1.000000  0.000000 )  
               b(3) = (  0.000000  0.000000  1.000000 )  


     PseudoPot. # 1 for Pb read from file:
     ./Pb.pbe-dn-rrkjus_psl.0.2.2.UPF
     MD5 check sum: 7afc420059c37d6888fc09c0f121e83f
     Pseudo is Ultrasoft + core correction, Zval = 14.0
     Generated using "atomic" code by A. Dal Corso v.5.0.2 svn rev. 9415
     Using radial grid of 1281 points,  6 beta functions with: 
                l(1) =   0
                l(2) =   0
                l(3) =   1
                l(4) =   1
                l(5) =   2
                l(6) =   2
     Q(r) pseudized with 0 coefficients 


     PseudoPot. # 2 for Ti read from file:
     ./Ti.pbe-sp-van_ak.UPF
     MD5 check sum: 8e4df49b7f0d34bbd5052bf3f5ea0213
     Pseudo is Ultrasoft, Zval = 12.0
     Generated by new atomic code, or converted to UPF format
     Using radial grid of  851 points,  6 beta functions with: 
                l(1) =   0
                l(2) =   0
                l(3) =   1
                l(4) =   1
                l(5) =   2
                l(6) =   2
     Q(r) pseudized with  8 coefficients,  rinner =    1.000   1.000   1.000
                                                       1.000   1.000

     PseudoPot. # 3 for O  read from file:
     ./O.pbe-n-rrkjus_psl.0.1.UPF
     MD5 check sum: e057bbcf3229fb5d8c36c0c92f9568b4
     Pseudo is Ultrasoft + core correction, Zval =  6.0
     Generated using "atomic" code by A. Dal Corso v.5.0.2 svn rev. 9415
     Using radial grid of 1095 points,  4 beta functions with: 
                l(1) =   0
                l(2) =   0
                l(3) =   1
                l(4) =   1
     Q(r) pseudized with 0 coefficients 


     atomic species   valence    mass     pseudopotential
        Pb            14.00   207.20000     Pb( 1.00)
        Ti            12.00    47.87000     Ti( 1.00)
        O              6.00    16.00000     O ( 1.00)

      8 Sym. Ops. (no inversion) found



   Cartesian axes

     site n.     atom                  positions (alat units)
         1           Pb  tau(   1) = (   0.0000000   0.0000000   0.0000000  )
         2           Ti  tau(   2) = (   0.5000000   0.5300000   0.5000000  )
         3           O   tau(   3) = (   0.5000000   0.5000000   0.0000000  )
         4           O   tau(   4) = (   0.5000000   0.0000000   0.5000000  )
         5           O   tau(   5) = (   0.0000000   0.5000000   0.5000000  )

     number of k points=    75  Marzari-Vanderbilt smearing, width (Ry)=  0.0250
                       cart. coord. in units 2pi/alat
        k(    1) = (   0.0500000   0.0500000   0.0500000), wk =   0.0160000
        k(    2) = (   0.0500000   0.0500000   0.1500000), wk =   0.0320000
        k(    3) = (   0.0500000   0.0500000   0.2500000), wk =   0.0320000
        k(    4) = (   0.0500000   0.0500000   0.3500000), wk =   0.0320000
        k(    5) = (   0.0500000   0.0500000   0.4500000), wk =   0.0320000
        k(    6) = (   0.0500000   0.1500000   0.1500000), wk =   0.0320000
        k(    7) = (   0.0500000   0.1500000   0.2500000), wk =   0.0320000
        k(    8) = (   0.0500000   0.1500000   0.3500000), wk =   0.0320000
        k(    9) = (   0.0500000   0.1500000   0.4500000), wk =   0.0320000
        k(   10) = (   0.0500000   0.2500000   0.2500000), wk =   0.0320000
        k(   11) = (   0.0500000   0.2500000   0.3500000), wk =   0.0320000
        k(   12) = (   0.0500000   0.2500000   0.4500000), wk =   0.0320000
        k(   13) = (   0.0500000   0.3500000   0.3500000), wk =   0.0320000
        k(   14) = (   0.0500000   0.3500000   0.4500000), wk =   0.0320000
        k(   15) = (   0.0500000   0.4500000   0.4500000), wk =   0.0320000
        k(   16) = (   0.1500000   0.1500000   0.1500000), wk =   0.0160000
        k(   17) = (   0.1500000   0.1500000   0.2500000), wk =   0.0320000
        k(   18) = (   0.1500000   0.1500000   0.3500000), wk =   0.0320000
        k(   19) = (   0.1500000   0.1500000   0.4500000), wk =   0.0320000
        k(   20) = (   0.1500000   0.2500000   0.2500000), wk =   0.0320000
        k(   21) = (   0.1500000   0.2500000   0.3500000), wk =   0.0320000
        k(   22) = (   0.1500000   0.2500000   0.4500000), wk =   0.0320000
        k(   23) = (   0.1500000   0.3500000   0.3500000), wk =   0.0320000
        k(   24) = (   0.1500000   0.3500000   0.4500000), wk =   0.0320000
        k(   25) = (   0.1500000   0.4500000   0.4500000), wk =   0.0320000
        k(   26) = (   0.2500000   0.2500000   0.2500000), wk =   0.0160000
        k(   27) = (   0.2500000   0.2500000   0.3500000), wk =   0.0320000
        k(   28) = (   0.2500000   0.2500000   0.4500000), wk =   0.0320000
        k(   29) = (   0.2500000   0.3500000   0.3500000), wk =   0.0320000
        k(   30) = (   0.2500000   0.3500000   0.4500000), wk =   0.0320000
        k(   31) = (   0.2500000   0.4500000   0.4500000), wk =   0.0320000
        k(   32) = (   0.3500000   0.3500000   0.3500000), wk =   0.0160000
        k(   33) = (   0.3500000   0.3500000   0.4500000), wk =   0.0320000
        k(   34) = (   0.3500000   0.4500000   0.4500000), wk =   0.0320000
        k(   35) = (   0.4500000   0.4500000   0.4500000), wk =   0.0160000
        k(   36) = (  -0.0500000   0.1500000   0.0500000), wk =   0.0160000
        k(   37) = (  -0.0500000   0.2500000   0.0500000), wk =   0.0160000
        k(   38) = (  -0.0500000   0.3500000   0.0500000), wk =   0.0160000
        k(   39) = (  -0.0500000   0.4500000   0.0500000), wk =   0.0160000
        k(   40) = (   0.1500000   0.0500000   0.1500000), wk =   0.0160000
        k(   41) = (  -0.0500000   0.2500000   0.1500000), wk =   0.0320000
        k(   42) = (   0.2500000   0.0500000   0.1500000), wk =   0.0320000
        k(   43) = (  -0.0500000   0.3500000   0.1500000), wk =   0.0320000
        k(   44) = (   0.3500000   0.0500000   0.1500000), wk =   0.0320000
        k(   45) = (  -0.0500000   0.4500000   0.1500000), wk =   0.0320000
        k(   46) = (   0.4500000   0.0500000   0.1500000), wk =   0.0320000
        k(   47) = (   0.2500000   0.0500000   0.2500000), wk =   0.0160000
        k(   48) = (  -0.0500000   0.3500000   0.2500000), wk =   0.0320000
        k(   49) = (   0.3500000   0.0500000   0.2500000), wk =   0.0320000
        k(   50) = (  -0.0500000   0.4500000   0.2500000), wk =   0.0320000
        k(   51) = (   0.4500000   0.0500000   0.2500000), wk =   0.0320000
        k(   52) = (   0.3500000   0.0500000   0.3500000), wk =   0.0160000
        k(   53) = (  -0.0500000   0.4500000   0.3500000), wk =   0.0320000
        k(   54) = (   0.4500000   0.0500000   0.3500000), wk =   0.0320000
        k(   55) = (   0.4500000   0.0500000   0.4500000), wk =   0.0160000
        k(   56) = (  -0.1500000   0.2500000   0.1500000), wk =   0.0160000
        k(   57) = (  -0.1500000   0.3500000   0.1500000), wk =   0.0160000
        k(   58) = (  -0.1500000   0.4500000   0.1500000), wk =   0.0160000
        k(   59) = (   0.2500000   0.1500000   0.2500000), wk =   0.0160000
        k(   60) = (  -0.1500000   0.3500000   0.2500000), wk =   0.0320000
        k(   61) = (   0.3500000   0.1500000   0.2500000), wk =   0.0320000
        k(   62) = (  -0.1500000   0.4500000   0.2500000), wk =   0.0320000
        k(   63) = (   0.4500000   0.1500000   0.2500000), wk =   0.0320000
        k(   64) = (   0.3500000   0.1500000   0.3500000), wk =   0.0160000
        k(   65) = (  -0.1500000   0.4500000   0.3500000), wk =   0.0320000
        k(   66) = (   0.4500000   0.1500000   0.3500000), wk =   0.0320000
        k(   67) = (   0.4500000   0.1500000   0.4500000), wk =   0.0160000
        k(   68) = (  -0.2500000   0.3500000   0.2500000), wk =   0.0160000
        k(   69) = (  -0.2500000   0.4500000   0.2500000), wk =   0.0160000
        k(   70) = (   0.3500000   0.2500000   0.3500000), wk =   0.0160000
        k(   71) = (  -0.2500000   0.4500000   0.3500000), wk =   0.0320000
        k(   72) = (   0.4500000   0.2500000   0.3500000), wk =   0.0320000
        k(   73) = (   0.4500000   0.2500000   0.4500000), wk =   0.0160000
        k(   74) = (  -0.3500000   0.4500000   0.3500000), wk =   0.0160000
        k(   75) = (   0.4500000   0.3500000   0.4500000), wk =   0.0160000

     Dense  grid:   160467 G-vectors     FFT dimensions: (  72,  72,  72)

     Smooth grid:    40651 G-vectors     FFT dimensions: (  45,  45,  45)

     Estimated max dynamical RAM per process >     759.22 MB

     Check: negative core charge=   -0.000006

     Initial potential from superposition of free atoms

     starting charge   42.99760, renormalised to   44.00000
     Starting wfcs are   31 randomized atomic wfcs

     total cpu time spent up to now is       11.4 secs

     Self-consistent Calculation

     iteration #  1     ecut=    80.00 Ry     beta= 0.70
     Davidson diagonalization with overlap
     ethr =  1.00E-02,  avg # of iterations =  2.0

     total cpu time spent up to now is       31.2 secs

     total energy              =    -364.39123246 Ry
     Harris-Foulkes estimate   =    -365.28878550 Ry
     estimated scf accuracy    <       1.12540580 Ry

     iteration #  2     ecut=    80.00 Ry     beta= 0.70
     Davidson diagonalization with overlap
     ethr =  2.56E-03,  avg # of iterations =  4.0

     total cpu time spent up to now is       58.5 secs

     total energy              =    -363.16909811 Ry
     Harris-Foulkes estimate   =    -365.84062250 Ry
     estimated scf accuracy    <      10.49137620 Ry

     iteration #  3     ecut=    80.00 Ry     beta= 0.70
     Davidson diagonalization with overlap
     ethr =  2.56E-03,  avg # of iterations =  5.1

     total cpu time spent up to now is       86.5 secs

     total energy              =    -364.93493032 Ry
     Harris-Foulkes estimate   =    -365.10862022 Ry
     estimated scf accuracy    <       0.46988929 Ry

     iteration #  4     ecut=    80.00 Ry     beta= 0.70
     Davidson diagonalization with overlap
     ethr =  1.07E-03,  avg # of iterations =  3.3

     total cpu time spent up to now is      106.4 secs

     total energy              =    -364.92134917 Ry
     Harris-Foulkes estimate   =    -364.97106852 Ry
     estimated scf accuracy    <       0.17739893 Ry

     iteration #  5     ecut=    80.00 Ry     beta= 0.70
     Davidson diagonalization with overlap
     ethr =  4.03E-04,  avg # of iterations =  4.3

     total cpu time spent up to now is      130.0 secs

     total energy              =    -364.95635411 Ry
     Harris-Foulkes estimate   =    -364.95669852 Ry
     estimated scf accuracy    <       0.00134682 Ry

     iteration #  6     ecut=    80.00 Ry     beta= 0.70
     Davidson diagonalization with overlap
     ethr =  3.06E-06,  avg # of iterations =  5.1

     total cpu time spent up to now is      159.5 secs

     total energy              =    -364.95699745 Ry
     Harris-Foulkes estimate   =    -364.95717033 Ry
     estimated scf accuracy    <       0.00053716 Ry

     iteration #  7     ecut=    80.00 Ry     beta= 0.70
     Davidson diagonalization with overlap
     ethr =  1.22E-06,  avg # of iterations =  3.0

     total cpu time spent up to now is      181.0 secs

     total energy              =    -364.95696577 Ry
     Harris-Foulkes estimate   =    -364.95714667 Ry
     estimated scf accuracy    <       0.00051037 Ry

     iteration #  8     ecut=    80.00 Ry     beta= 0.70
     Davidson diagonalization with overlap
     ethr =  1.16E-06,  avg # of iterations =  2.9

     total cpu time spent up to now is      203.4 secs

     total energy              =    -364.95707092 Ry
     Harris-Foulkes estimate   =    -364.95709465 Ry
     estimated scf accuracy    <       0.00008383 Ry

     iteration #  9     ecut=    80.00 Ry     beta= 0.70
     Davidson diagonalization with overlap
     ethr =  1.91E-07,  avg # of iterations =  2.0

     total cpu time spent up to now is      223.5 secs

     total energy              =    -364.95706619 Ry
     Harris-Foulkes estimate   =    -364.95708022 Ry
     estimated scf accuracy    <       0.00003560 Ry

     iteration # 10     ecut=    80.00 Ry     beta= 0.70
     Davidson diagonalization with overlap
     ethr =  8.09E-08,  avg # of iterations =  2.2

     total cpu time spent up to now is      243.6 secs

     total energy              =    -364.95707007 Ry
     Harris-Foulkes estimate   =    -364.95707096 Ry
     estimated scf accuracy    <       0.00000269 Ry

     iteration # 11     ecut=    80.00 Ry     beta= 0.70
     Davidson diagonalization with overlap
     ethr =  6.11E-09,  avg # of iterations =  3.3

     total cpu time spent up to now is      267.9 secs

     total energy              =    -364.95707093 Ry
     Harris-Foulkes estimate   =    -364.95707094 Ry
     estimated scf accuracy    <       0.00000007 Ry

     iteration # 12     ecut=    80.00 Ry     beta= 0.70
     Davidson diagonalization with overlap
     ethr =  1.57E-10,  avg # of iterations =  3.6

     total cpu time spent up to now is      292.0 secs

     total energy              =    -364.95707094 Ry
     Harris-Foulkes estimate   =    -364.95707095 Ry
     estimated scf accuracy    <       0.00000002 Ry

     iteration # 13     ecut=    80.00 Ry     beta= 0.70
     Davidson diagonalization with overlap
     ethr =  3.44E-11,  avg # of iterations =  2.7

     total cpu time spent up to now is      312.6 secs

     End of self-consistent calculation

          k = 0.0500 0.0500 0.0500 (  5047 PWs)   bands (ev):

   -46.1820 -22.4609 -22.4242 -22.4241  -7.2236  -6.2188  -6.1661  -5.0338
    -5.0264  -5.0261  -4.8872  -4.8808   4.4849   6.8231   6.8448   6.9809
     8.9713   8.9891   9.1820   9.3834   9.5280   9.5709  12.4278  12.6367
    12.6380  14.5791

          k = 0.0500 0.0500 0.1500 (  5074 PWs)   bands (ev):

   -46.1818 -22.4606 -22.4348 -22.4238  -7.1394  -6.1862  -6.1354  -5.0416
    -5.0340  -5.0257  -4.9192  -4.8775   4.1880   6.8718   6.9152   7.1679
     8.7381   8.8435   9.1693   9.2691   9.3726   9.5537  12.6383  12.7557
    12.8559  14.6768

          k = 0.0500 0.0500 0.2500 (  5093 PWs)   bands (ev):

   -46.1815 -22.4600 -22.4519 -22.4232  -6.9986  -6.1297  -6.0857  -5.0559
    -5.0456  -5.0248  -4.9757  -4.8715   3.8201   6.8643   7.0411   7.1693
     8.4931   8.5677   9.1046   9.1960   9.3886   9.6218  12.6427  13.2236
    13.2678  14.6770

          k = 0.0500 0.0500 0.3500 (  5090 PWs)   bands (ev):

   -46.1811 -22.4691 -22.4592 -22.4225  -6.8511  -6.0664  -6.0372  -5.0791
    -5.0560  -5.0299  -5.0239  -4.8675   3.5341   6.4869   7.2167   7.3231
     8.1699   8.2515   9.0394   9.2261   9.5082   9.9847  12.6445  13.6529
    13.6900  14.3071

          k = 0.0500 0.0500 0.4500 (  5073 PWs)   bands (ev):

   -46.1809 -22.4796 -22.4589 -22.4221  -6.7558  -6.0208  -6.0102  -5.1090
    -5.0626  -5.0515  -5.0233  -4.8663   3.3868   6.1811   7.3944   7.5707
     7.8901   7.9343   8.9950   9.2670   9.5589  10.4269  12.6401  13.5810
    13.9077  13.9561

          k = 0.0500 0.1500 0.1500 (  5079 PWs)   bands (ev):

   -46.1816 -22.4713 -22.4344 -22.4234  -7.0512  -6.1602  -6.1086  -5.0461
    -5.0401  -5.0325  -4.9133  -4.8950   3.9692   6.8246   6.9433   7.3377
     8.4499   8.6726   9.0351   9.2782   9.3396   9.5828  12.7522  12.9351
    13.0971  14.8615

          k = 0.0500 0.1500 0.2500 (  5077 PWs)   bands (ev):

   -46.1813 -22.4707 -22.4515 -22.4227  -6.9157  -6.1114  -6.0640  -5.0636
    -5.0477  -5.0319  -4.9433  -4.8879   3.6739   6.7779   7.0506   7.2693
     8.2006   8.4558   8.8712   9.2000   9.3274   9.7557  12.9292  13.2270
    13.4391  14.9342

          k = 0.0500 0.1500 0.3500 (  5080 PWs)   bands (ev):

   -46.1809 -22.4702 -22.4683 -22.4221  -6.7770  -6.0625  -6.0136  -5.0841
    -5.0549  -5.0315  -4.9721  -4.8835   3.4277   6.4774   7.1346   7.3303
     7.9254   8.2422   8.8362   9.2300   9.3121  10.0230  12.9256  13.6518
    13.8104  14.4673

          k = 0.0500 0.1500 0.4500 (  5079 PWs)   bands (ev):

   -46.1807 -22.4791 -22.4695 -22.4217  -6.6898  -6.0309  -5.9797  -5.1007
    -5.0617  -5.0312  -4.9823  -4.8849   3.2959   6.1877   7.2423   7.4802
     7.7727   7.9567   8.9023   9.2735   9.2897  10.2357  12.9124  13.9024
    13.9789  14.0544

          k = 0.0500 0.2500 0.2500 (  5076 PWs)   bands (ev):

   -46.1809 -22.4879 -22.4508 -22.4221  -6.7834  -6.0848  -6.0170  -5.0686
    -5.0504  -5.0389  -4.9171  -4.9037   3.4535   6.6847   7.0487   7.1979
     7.9861   8.1333   8.6633   9.0705   9.5279   9.8720  13.2074  13.3741
    13.7245  14.9782

          k = 0.0500 0.2500 0.3500 (  5080 PWs)   bands (ev):

   -46.1806 -22.4872 -22.4678 -22.4215  -6.6698  -6.0491  -5.9568  -5.0778
    -5.0542  -5.0406  -4.9289  -4.8833   3.2594   6.4635   6.9146   7.2712
     7.7675   8.0895   8.5111   8.9682   9.6333   9.9073  13.3495  13.6466
    14.0112  14.7371

          k = 0.0500 0.2500 0.4500 (  5084 PWs)   bands (ev):

   -46.1804 -22.4867 -22.4783 -22.4211  -6.6061  -6.0191  -5.9153  -5.0861
    -5.0601  -5.0422  -4.9225  -4.8802   3.1498   6.1946   6.9580   7.2378
     7.7288   8.0535   8.4345   8.9852   9.6250   9.9205  13.3434  13.8946
    14.2100  14.5638

          k = 0.0500 0.3500 0.3500 (  5079 PWs)   bands (ev):

   -46.1803 -22.5043 -22.4670 -22.4208  -6.5889  -5.9947  -5.8977  -5.0756
    -5.0572  -5.0427  -4.9502  -4.8277   3.0975   6.3512   6.5931   7.3008
     7.6562   7.9543   8.4148   8.8133   9.6063   9.9480  13.6222  13.7729
    14.2248  15.0078

          k = 0.0500 0.3500 0.4500 (  5079 PWs)   bands (ev):

   -46.1800 -22.5038 -22.4774 -22.4204  -6.5608  -5.9512  -5.8453  -5.0779
    -5.0589  -5.0472  -4.9590  -4.7941   3.0059   6.1655   6.5085   7.2997
     7.5536   8.1082   8.2834   8.7327   9.3920  10.0595  13.7598  13.8836
    14.3895  15.1034

          k = 0.0500 0.4500 0.4500 (  5100 PWs)   bands (ev):

   -46.1798 -22.5143 -22.4769 -22.4200  -6.5513  -5.8815  -5.7990  -5.0788
    -5.0577  -5.0482  -4.9824  -4.7444   2.9184   6.0260   6.3543   7.3569
     7.4254   8.1368   8.3102   8.5956   9.0814  10.2331  13.8730  14.0150
    14.5182  15.4048

          k = 0.1500 0.1500 0.1500 (  5095 PWs)   bands (ev):

   -46.1814 -22.4709 -22.4341 -22.4339  -6.9713  -6.1375  -6.0846  -5.0529
    -5.0493  -5.0306  -4.9055  -4.8997   3.8190   6.8174   6.8386   7.4609
     8.2812   8.3517   9.0908   9.3160   9.3843   9.4648  12.9855  13.0901
    13.1027  15.4735

          k = 0.1500 0.1500 0.2500 (  5084 PWs)   bands (ev):

   -46.1811 -22.4703 -22.4511 -22.4333  -6.8414  -6.1010  -6.0421  -5.0704
    -5.0490  -5.0261  -4.9227  -4.8879   3.5921   6.7466   6.8407   7.3089
     8.0079   8.1476   8.9949   9.2746   9.4245   9.6420  13.0590  13.3608
    13.4323  15.1581

          k = 0.1500 0.1500 0.3500 (  5082 PWs)   bands (ev):

   -46.1807 -22.4698 -22.4679 -22.4327  -6.7118  -6.0644  -5.9931  -5.0846
    -5.0425  -5.0179  -4.9463  -4.8833   3.3875   6.4794   6.8411   7.1921
     7.7805   8.2114   8.6919   9.3539   9.4416   9.8746  12.9986  13.7159
    13.7953  14.6484

          k = 0.1500 0.1500 0.4500 (  5084 PWs)   bands (ev):

   -46.1805 -22.4786 -22.4691 -22.4323  -6.6331  -6.0416  -5.9582  -5.0907
    -5.0381  -5.0075  -4.9639  -4.8863   3.2730   6.1943   6.8336   7.2522
     7.6736   8.3138   8.4661   9.4050   9.4338   9.9944  12.9370  13.9437
    14.0331  14.4102

          k = 0.1500 0.2500 0.2500 (  5081 PWs)   bands (ev):

   -46.1807 -22.4875 -22.4504 -22.4327  -6.7068  -6.0772  -6.0213  -5.0723
    -5.0563  -5.0127  -4.8966  -4.8866   3.4446   6.6277   6.7381   7.1248
     7.6712   7.9257   9.0245   9.2096   9.5592   9.7061  13.2588  13.4385
    13.6709  14.9387

          k = 0.1500 0.2500 0.3500 (  5080 PWs)   bands (ev):

   -46.1804 -22.4868 -22.4673 -22.4320  -6.5948  -6.0636  -5.9672  -5.0757
    -5.0476  -4.9986  -4.9011  -4.8678   3.3014   6.4471   6.6751   6.8761
     7.4149   7.9598   8.8906   9.1891   9.6212   9.7408  13.2880  13.6720
    13.9364  14.8958

          k = 0.1500 0.2500 0.4500 (  5077 PWs)   bands (ev):

   -46.1802 -22.4863 -22.4778 -22.4316  -6.5329  -6.0541  -5.9245  -5.0754
    -5.0399  -4.9902  -4.8977  -4.8664   3.2149   6.1963   6.6159   6.8432
     7.3485   8.0547   8.6837   9.2741   9.5378   9.7685  13.2634  13.8916
    14.1378  14.9556

          k = 0.1500 0.3500 0.3500 (  5081 PWs)   bands (ev):

   -46.1800 -22.5039 -22.4666 -22.4313  -6.5052  -6.0263  -5.9402  -5.0706
    -5.0390  -4.9798  -4.9081  -4.8123   3.2014   6.3232   6.5372   6.6557
     7.0654   7.9244   8.8617   9.0965   9.4032   9.9389  13.5276  13.7490
    14.1201  15.1847

          k = 0.1500 0.3500 0.4500 (  5079 PWs)   bands (ev):

   -46.1798 -22.5034 -22.4770 -22.4309  -6.4763  -6.0077  -5.8913  -5.0669
    -5.0237  -4.9757  -4.9144  -4.7789   3.1399   6.1594   6.4502   6.6047
     6.9278   7.9792   8.7249   9.0906   9.1919  10.0556  13.6573  13.8571
    14.2769  15.4431

          k = 0.1500 0.4500 0.4500 (  5073 PWs)   bands (ev):

   -46.1796 -22.5139 -22.4765 -22.4305  -6.4655  -5.9475  -5.8721  -5.0632
    -5.0013  -4.9610  -4.9396  -4.7281   3.0862   6.0145   6.3334   6.6402
     6.7169   7.9859   8.5036   9.0032   9.0955  10.2252  13.8333  13.9366
    14.3938  15.7710

          k = 0.2500 0.2500 0.2500 (  5070 PWs)   bands (ev):

   -46.1804 -22.4868 -22.4498 -22.4495  -6.5897  -6.0666  -6.0169  -5.0611
    -5.0591  -4.9814  -4.8713  -4.8611   3.4113   6.4622   6.4965   7.0194
     7.4038   7.4478   9.1809   9.4708   9.4920   9.6754  13.2801  13.6400
    13.6431  14.9498

          k = 0.2500 0.2500 0.3500 (  5072 PWs)   bands (ev):

   -46.1800 -22.4861 -22.4666 -22.4490  -6.4884  -6.0684  -5.9804  -5.0573
    -5.0427  -4.9437  -4.8538  -4.8427   3.3564   6.2932   6.3706   6.6381
     7.1776   7.4085   8.9345   9.4949   9.5585   9.7992  13.3163  13.7392
    13.9180  15.1566

          k = 0.2500 0.2500 0.4500 (  5073 PWs)   bands (ev):

   -46.1798 -22.4856 -22.4770 -22.4485  -6.4377  -6.0740  -5.9394  -5.0537
    -5.0314  -4.9043  -4.8567  -4.8346   3.3139   6.1689   6.2099   6.4831
     7.1335   7.4506   8.6810   9.5008   9.5563   9.8571  13.3729  13.8772
    14.1198  15.4354

          k = 0.2500 0.3500 0.3500 (  5057 PWs)   bands (ev):

   -46.1797 -22.5031 -22.4658 -22.4483  -6.3761  -6.0640  -5.9992  -5.0468
    -5.0248  -4.8996  -4.8334  -4.7831   3.3803   6.0939   6.1792   6.4372
     6.7881   7.2914   8.4834   9.5851   9.6750   9.9465  13.4916  13.8385
    14.0554  15.4918

          k = 0.2500 0.3500 0.4500 (  5063 PWs)   bands (ev):

   -46.1795 -22.5027 -22.4763 -22.4478  -6.3447  -6.0771  -5.9554  -5.0408
    -5.0094  -4.8651  -4.8285  -4.7493   3.3872   6.0164   6.1035   6.2007
     6.6542   7.3073   8.1153   9.6179   9.6649  10.0587  13.6742  13.8867
    14.2084  15.8533

          k = 0.2500 0.4500 0.4500 (  5070 PWs)   bands (ev):

   -46.1793 -22.5132 -22.4758 -22.4474  -6.3257  -6.0346  -5.9662  -5.0356
    -4.9912  -4.8398  -4.8141  -4.6969   3.4171   5.9197   6.0405   6.0922
     6.4093   7.2910   7.6622   9.6159   9.7047  10.2147  13.8701  13.9521
    14.3121  16.1956

          k = 0.3500 0.3500 0.3500 (  5055 PWs)   bands (ev):

   -46.1794 -22.5024 -22.4652 -22.4651  -6.2775  -6.0774  -6.0370  -5.0212
    -5.0155  -4.8245  -4.7630  -4.7479   3.5693   5.8200   5.8629   6.3137
     6.7362   6.7608   7.8291   9.8618   9.9177  10.0174  13.6518  14.0317
    14.0329  15.8729

          k = 0.3500 0.3500 0.4500 (  5056 PWs)   bands (ev):

   -46.1792 -22.5020 -22.4755 -22.4647  -6.2519  -6.0943  -6.0109  -5.0138
    -5.0022  -4.7687  -4.7424  -4.7123   3.6856   5.6664   5.7715   6.1057
     6.5881   6.7505   7.3365   9.9142   9.9982  10.1251  13.8539  14.0156
    14.2010  16.2663

          k = 0.3500 0.4500 0.4500 (  5051 PWs)   bands (ev):

   -46.1789 -22.5125 -22.4751 -22.4643  -6.1880  -6.1045  -6.0430  -5.0078
    -4.9880  -4.7302  -4.7002  -4.6585   3.8888   5.5536   5.6241   5.9665
     6.3912   6.6847   6.7481  10.0166  10.0946  10.2059  14.0317  14.1004
    14.2732  16.6410

          k = 0.4500 0.4500 0.4500 (  5034 PWs)   bands (ev):

   -46.1787 -22.5120 -22.4747 -22.4746  -6.1546  -6.0947  -6.0813  -4.9918
    -4.9854  -4.6654  -4.6357  -4.6304   4.3839   5.3592   5.3937   5.8635
     5.9507   6.3844   6.4364  10.1911  10.2017  10.2680  14.1979  14.2520
    14.2531  17.0045

          k =-0.0500 0.1500 0.0500 (  5074 PWs)   bands (ev):

   -46.1818 -22.4717 -22.4238 -22.4237  -7.1332  -6.1906  -6.1337  -5.0353
    -5.0336  -5.0325  -4.9151  -4.8825   4.1848   6.8669   6.8848   7.1733
     8.7397   8.7766   9.1799   9.2077   9.5384   9.5394  12.4295  12.9262
    12.9337  14.5801

          k =-0.0500 0.2500 0.0500 (  5093 PWs)   bands (ev):

   -46.1815 -22.4891 -22.4231 -22.4231  -6.9807  -6.1467  -6.0768  -5.0518
    -5.0429  -5.0322  -4.9731  -4.8766   3.8108   6.8459   6.9965   7.1395
     8.4298   8.4763   9.1284   9.2378   9.5760   9.6587  12.4323  13.3582
    13.3725  14.5818

          k =-0.0500 0.3500 0.0500 (  5090 PWs)   bands (ev):

   -46.1811 -22.5064 -22.4225 -22.4225  -6.8181  -6.1068  -6.0124  -5.0792
    -5.0517  -5.0313  -5.0274  -4.8729   3.5179   6.4539   7.1348   7.2485
     8.1356   8.1656   9.0643   9.4266   9.6241  10.0358  12.4340  13.7647
    13.7816  14.3415

          k =-0.0500 0.4500 0.0500 (  5073 PWs)   bands (ev):

   -46.1809 -22.5170 -22.4221 -22.4221  -6.7107  -6.0857  -5.9675  -5.1131
    -5.0565  -5.0491  -5.0307  -4.8718   3.3662   6.1361   7.2523   7.4170
     7.9141   7.9358   9.0230   9.5091   9.6578  10.4817  12.4323  13.6065
    14.0081  14.0266

          k = 0.1500 0.0500 0.1500 (  5079 PWs)   bands (ev):

   -46.1816 -22.4602 -22.4346 -22.4343  -7.0585  -6.1611  -6.1033  -5.0509
    -5.0345  -5.0317  -4.9177  -4.8916   3.9733   6.8222   6.9763   7.3282
     8.5324   8.5570   9.1688   9.1776   9.3436   9.5824  12.8287  12.8777
    13.0088  14.9611

          k =-0.0500 0.2500 0.1500 (  5077 PWs)   bands (ev):

   -46.1813 -22.4887 -22.4337 -22.4227  -6.9043  -6.1194  -6.0612  -5.0628
    -5.0429  -5.0380  -4.9406  -4.8923   3.6679   6.7546   7.0225   7.2644
     8.1471   8.4281   8.8630   9.3075   9.3703   9.7772  12.7533  13.3664
    13.4762  14.9048

          k = 0.2500 0.0500 0.1500 (  5077 PWs)   bands (ev):

   -46.1813 -22.4596 -22.4515 -22.4337  -6.9256  -6.1156  -6.0513  -5.0647
    -5.0427  -5.0319  -4.9470  -4.8887   3.6783   6.7879   7.0567   7.2675
     8.1953   8.3864   8.9075   9.2533   9.3862   9.7117  12.8488  13.2616
    13.3994  15.0069

          k =-0.0500 0.3500 0.1500 (  5080 PWs)   bands (ev):

   -46.1809 -22.5059 -22.4331 -22.4221  -6.7517  -6.0782  -6.0095  -5.0853
    -5.0480  -5.0387  -4.9708  -4.8883   3.4150   6.4329   7.0650   7.3019
     7.8939   8.1854   8.9037   9.2983   9.4157  10.0718  12.7470  13.7720
    13.8445  14.5121

          k = 0.3500 0.0500 0.1500 (  5080 PWs)   bands (ev):

   -46.1809 -22.4687 -22.4588 -22.4331  -6.7910  -6.0600  -6.0014  -5.0834
    -5.0484  -5.0315  -4.9806  -4.8845   3.4319   6.4849   7.1058   7.3517
     7.9050   8.2678   8.7346   9.2966   9.4195  10.0029  12.8381  13.6791
    13.7792  14.4987

          k =-0.0500 0.4500 0.1500 (  5079 PWs)   bands (ev):

   -46.1807 -22.5165 -22.4326 -22.4217  -6.6544  -6.0507  -5.9762  -5.1048
    -5.0534  -5.0385  -4.9815  -4.8898   3.2788   6.1316   7.1161   7.4399
     7.7457   7.9624   8.9957   9.2751   9.4507  10.3010  12.7341  13.9827
    14.0201  14.1071

          k = 0.4500 0.0500 0.1500 (  5079 PWs)   bands (ev):

   -46.1807 -22.4791 -22.4585 -22.4327  -6.7077  -6.0138  -5.9767  -5.1001
    -5.0535  -5.0312  -4.9945  -4.8853   3.2999   6.1895   7.2099   7.4722
     7.7945   7.9971   8.7563   9.2809   9.4611  10.2482  12.8158  13.9404
    13.9930  14.0213

          k = 0.2500 0.0500 0.2500 (  5076 PWs)   bands (ev):

   -46.1809 -22.4590 -22.4509 -22.4506  -6.8123  -6.0819  -5.9948  -5.0674
    -5.0458  -5.0372  -4.9153  -4.9148   3.4643   6.7348   7.0166   7.2380
     7.9841   8.0033   8.8213   9.0702   9.5919   9.7866  13.1980  13.3054
    13.6826  15.0462

          k =-0.0500 0.3500 0.2500 (  5080 PWs)   bands (ev):

   -46.1806 -22.5051 -22.4501 -22.4214  -6.6580  -6.0424  -5.9679  -5.0786
    -5.0519  -5.0431  -4.9296  -4.8844   3.2528   6.4073   6.9329   7.2293
     7.7846   8.0688   8.4892   9.0760   9.5992   9.9647  13.2032  13.7729
    14.0129  14.7758

          k = 0.3500 0.0500 0.2500 (  5080 PWs)   bands (ev):

   -46.1806 -22.4679 -22.4582 -22.4500  -6.7097  -6.0260  -5.9393  -5.0749
    -5.0482  -5.0394  -4.9314  -4.8964   3.2696   6.4889   6.9001   7.2722
     7.7452   8.0239   8.5510   9.0841   9.6509   9.9025  13.2277  13.6766
    13.9750  14.7719

          k =-0.0500 0.4500 0.2500 (  5084 PWs)   bands (ev):

   -46.1804 -22.5157 -22.4496 -22.4210  -6.5878  -5.9945  -5.9454  -5.0896
    -5.0523  -5.0489  -4.9258  -4.8796   3.1387   6.1212   6.9588   7.1913
     7.7689   7.9865   8.4572   9.1119   9.5675  10.0161  13.1937  14.0183
    14.1922  14.6336

          k = 0.4500 0.0500 0.2500 (  5084 PWs)   bands (ev):

   -46.1804 -22.4783 -22.4579 -22.4496  -6.6541  -5.9709  -5.9115  -5.0842
    -5.0517  -5.0423  -4.9245  -4.8968   3.1592   6.1997   6.9708   7.1825
     7.7702   8.0608   8.3336   9.1444   9.5946   9.9929  13.2147  13.9386
    14.1667  14.5870

          k = 0.3500 0.0500 0.3500 (  5079 PWs)   bands (ev):

   -46.1803 -22.4673 -22.4669 -22.4575  -6.6531  -5.9534  -5.8749  -5.0708
    -5.0528  -5.0392  -4.9512  -4.8475   3.1129   6.4468   6.5525   7.2860
     7.5453   7.9633   8.5281   8.8319   9.6037   9.9888  13.6092  13.7064
    14.1878  15.0139

          k =-0.0500 0.4500 0.3500 (  5079 PWs)   bands (ev):

   -46.1800 -22.5148 -22.4665 -22.4204  -6.5559  -5.9290  -5.8669  -5.0798
    -5.0566  -5.0487  -4.9606  -4.7937   3.0014   6.0945   6.5651   7.2465
     7.6303   8.0170   8.2983   8.7992   9.3833  10.0834  13.6218  14.0168
    14.3774  15.1653

          k = 0.4500 0.0500 0.3500 (  5079 PWs)   bands (ev):

   -46.1800 -22.4775 -22.4666 -22.4571  -6.6311  -5.8820  -5.8398  -5.0738
    -5.0517  -5.0459  -4.9614  -4.8161   3.0197   6.1789   6.5596   7.2063
     7.5074   8.1156   8.3286   8.8106   9.3967  10.1295  13.6475  13.9325
    14.3397  15.1218

          k = 0.4500 0.0500 0.4500 (  5100 PWs)   bands (ev):

   -46.1798 -22.4770 -22.4769 -22.4567  -6.6291  -5.8058  -5.7930  -5.0732
    -5.0502  -5.0465  -4.9865  -4.7687   2.9346   6.0685   6.4011   7.2722
     7.3026   8.2449   8.3737   8.5761   9.1210  10.2975  13.9187  13.9351
    14.4598  15.3634

          k =-0.1500 0.2500 0.1500 (  5084 PWs)   bands (ev):

   -46.1811 -22.4882 -22.4334 -22.4332  -6.8275  -6.0986  -6.0535  -5.0700
    -5.0516  -5.0258  -4.9170  -4.8925   3.5855   6.7368   6.7991   7.3140
     8.0051   8.1643   8.8795   9.3837   9.4516   9.6522  12.9627  13.4437
    13.4740  15.1690

          k =-0.1500 0.3500 0.1500 (  5082 PWs)   bands (ev):

   -46.1807 -22.5054 -22.4327 -22.4326  -6.6808  -6.0573  -6.0210  -5.0870
    -5.0471  -5.0147  -4.9395  -4.8883   3.3740   6.4349   6.7647   7.2059
     7.8197   8.1915   8.6391   9.4108   9.4936   9.9170  12.9018  13.8085
    13.8213  14.6696

          k =-0.1500 0.4500 0.1500 (  5084 PWs)   bands (ev):

   -46.1805 -22.5160 -22.4323 -22.4322  -6.5894  -6.0295  -6.0001  -5.0951
    -5.0441  -5.0013  -4.9564  -4.8921   3.2551   6.1365   6.7343   7.2650
     7.7352   8.2013   8.5335   9.4121   9.5194  10.0492  12.8425  14.0405
    14.0407  14.4427

          k = 0.2500 0.1500 0.2500 (  5081 PWs)   bands (ev):

   -46.1807 -22.4696 -22.4506 -22.4502  -6.7264  -6.0783  -6.0031  -5.0703
    -5.0551  -5.0119  -4.8969  -4.8913   3.4517   6.6481   6.7570   7.1177
     7.6480   7.9123   9.1121   9.2044   9.5993   9.6159  13.2750  13.4141
    13.6316  14.9444

          k =-0.1500 0.3500 0.2500 (  5080 PWs)   bands (ev):

   -46.1804 -22.5046 -22.4496 -22.4320  -6.5795  -6.0434  -5.9974  -5.0774
    -5.0503  -4.9939  -4.9006  -4.8696   3.2942   6.3986   6.6293   6.8923
     7.4957   7.9400   8.7687   9.3186   9.6041   9.7769  13.2000  13.7599
    13.9378  14.9099

          k = 0.3500 0.1500 0.2500 (  5080 PWs)   bands (ev):

   -46.1804 -22.4691 -22.4671 -22.4497  -6.6231  -6.0448  -5.9578  -5.0733
    -5.0476  -4.9934  -4.8998  -4.8796   3.3083   6.4660   6.6651   6.8637
     7.4427   7.9214   8.8816   9.2740   9.5719   9.7764  13.2387  13.6965
    13.9063  14.9011

          k =-0.1500 0.4500 0.2500 (  5077 PWs)   bands (ev):

   -46.1802 -22.5152 -22.4492 -22.4316  -6.5088  -6.0065  -5.9874  -5.0789
    -5.0447  -4.9785  -4.9040  -4.8653   3.2029   6.1266   6.5352   6.8843
     7.4617   8.0253   8.5739   9.3845   9.5338   9.8138  13.1682  13.9892
    14.1326  14.9926

          k = 0.4500 0.1500 0.2500 (  5077 PWs)   bands (ev):

   -46.1802 -22.4778 -22.4685 -22.4492  -6.5682  -6.0188  -5.9233  -5.0735
    -5.0409  -4.9788  -4.8988  -4.8818   3.2214   6.2004   6.5922   6.8464
     7.3980   7.9983   8.6834   9.3371   9.4839   9.8427  13.2067  13.9216
    14.1079  14.9624

          k = 0.3500 0.1500 0.3500 (  5081 PWs)   bands (ev):

   -46.1800 -22.4686 -22.4665 -22.4663  -6.5631  -5.9907  -5.9194  -5.0657
    -5.0388  -4.9743  -4.9038  -4.8322   3.2151   6.4365   6.4613   6.6504
     7.0510   7.8932   8.9232   9.1144   9.3573   9.9920  13.5174  13.7209
    14.0907  15.1808

          k =-0.1500 0.4500 0.3500 (  5079 PWs)   bands (ev):

   -46.1798 -22.5144 -22.4661 -22.4309  -6.4700  -5.9709  -5.9309  -5.0683
    -5.0279  -4.9636  -4.9224  -4.7781   3.1349   6.0850   6.5072   6.5554
     7.0029   7.9592   8.6632   9.1184   9.2366  10.0627  13.5664  13.9519
    14.2711  15.4728

          k = 0.4500 0.1500 0.3500 (  5079 PWs)   bands (ev):

   -46.1798 -22.4770 -22.4680 -22.4659  -6.5414  -5.9445  -5.8887  -5.0624
    -5.0262  -4.9622  -4.9141  -4.8013   3.1527   6.1744   6.4800   6.5613
     6.9449   7.9327   8.7463   9.1136   9.2002  10.1205  13.5928  13.8882
    14.2443  15.4482

          k = 0.4500 0.1500 0.4500 (  5073 PWs)   bands (ev):

   -46.1796 -22.4765 -22.4765 -22.4673  -6.5405  -5.8784  -5.8668  -5.0577
    -5.0032  -4.9501  -4.9362  -4.7533   3.1026   6.0601   6.3822   6.6001
     6.6635   7.9496   8.5454   9.0552   9.0711  10.2919  13.8553  13.8894
    14.3610  15.7600

          k =-0.2500 0.3500 0.2500 (  5072 PWs)   bands (ev):

   -46.1800 -22.5039 -22.4491 -22.4488  -6.4633  -6.0399  -6.0309  -5.0606
    -5.0428  -4.9431  -4.8559  -4.8371   3.3482   6.2500   6.3606   6.6305
     7.2999   7.3437   8.8804   9.5232   9.6007   9.7726  13.2821  13.7867
    13.9232  15.1606

          k =-0.2500 0.4500 0.2500 (  5073 PWs)   bands (ev):

   -46.1798 -22.5144 -22.4486 -22.4484  -6.3967  -6.0397  -6.0094  -5.0581
    -5.0324  -4.9003  -4.8641  -4.8244   3.3001   6.1182   6.1352   6.5375
     7.2663   7.3842   8.6288   9.4923   9.6335   9.8269  13.3222  13.9472
    14.1251  15.4545

          k = 0.3500 0.2500 0.3500 (  5057 PWs)   bands (ev):

   -46.1797 -22.4854 -22.4659 -22.4658  -6.4168  -6.0420  -5.9821  -5.0420
    -5.0279  -4.8940  -4.8242  -4.8013   3.3894   6.1242   6.1599   6.4386
     6.8126   7.2497   8.4969   9.6105   9.6186   9.9990  13.4909  13.8278
    14.0404  15.4893

          k =-0.2500 0.4500 0.3500 (  5063 PWs)   bands (ev):

   -46.1795 -22.5137 -22.4654 -22.4478  -6.3325  -6.0307  -6.0118  -5.0423
    -5.0101  -4.8609  -4.8322  -4.7473   3.3808   5.9354   6.1270   6.2140
     6.7169   7.2847   8.1107   9.5829   9.7079  10.0544  13.6238  13.9462
    14.2074  15.8597

          k = 0.4500 0.2500 0.3500 (  5063 PWs)   bands (ev):

   -46.1795 -22.4849 -22.4763 -22.4654  -6.3951  -6.0288  -5.9545  -5.0366
    -5.0131  -4.8514  -4.8237  -4.7703   3.3964   5.9914   6.1456   6.1719
     6.7084   7.2513   8.1292   9.6159   9.6458  10.1165  13.6514  13.8990
    14.1934  15.8509

          k = 0.4500 0.2500 0.4500 (  5070 PWs)   bands (ev):

   -46.1793 -22.4845 -22.4758 -22.4758  -6.3954  -5.9722  -5.9617  -5.0302
    -4.9958  -4.8201  -4.8103  -4.7237   3.4333   5.9730   6.0113   6.0628
     6.4397   7.2369   7.6911   9.6516   9.6520  10.2829  13.8799  13.9308
    14.2937  16.1866

          k =-0.3500 0.4500 0.3500 (  5056 PWs)   bands (ev):

   -46.1792 -22.5129 -22.4648 -22.4646  -6.2135  -6.0738  -6.0680  -5.0178
    -4.9989  -4.7799  -4.7397  -4.7026   3.6760   5.6265   5.8300   6.0695
     6.6103   6.7497   7.3343   9.9526   9.9880  10.0842  13.8295  14.0482
    14.2040  16.2670

          k = 0.4500 0.3500 0.4500 (  5051 PWs)   bands (ev):

   -46.1789 -22.5015 -22.4751 -22.4751  -6.2483  -6.0496  -6.0391  -5.0025
    -4.9931  -4.7096  -4.6961  -4.6838   3.9024   5.5651   5.5856   5.9812
     6.4351   6.6421   6.7517  10.0276  10.0333  10.2740  14.0400  14.0947
    14.2611  16.6380

     the Fermi energy is    10.4139 ev

!    total energy              =    -364.95707095 Ry
     Harris-Foulkes estimate   =    -364.95707095 Ry
     estimated scf accuracy    <          5.5E-10 Ry

     The total energy is the sum of the following terms:

     one-electron contribution =     -83.03325133 Ry
     hartree contribution      =      70.89705727 Ry
     xc contribution           =     -85.80984140 Ry
     ewald contribution        =    -267.01720231 Ry
     smearing contrib. (-TS)   =       0.00616683 Ry

     convergence has been achieved in  13 iterations

     Forces acting on atoms (cartesian axes, Ry/au):

     atom    1 type  1   force =     0.00000000    0.01147927    0.00000000
     atom    2 type  2   force =     0.00000000   -0.00924065    0.00000000
     atom    3 type  3   force =     0.00000000    0.00083539    0.00000000
     atom    4 type  3   force =     0.00000000   -0.00390940    0.00000000
     atom    5 type  3   force =     0.00000000    0.00083539    0.00000000

     Total force =     0.004084     Total SCF correction =     0.000021


     Computing stress (Cartesian axis) and pressure

          total   stress  (Ry/bohr**3)                   (kbar)     P=    5.59
   0.00000157   0.00000000   0.00000000          0.23      0.00      0.00
   0.00000000   0.00011088   0.00000000          0.00     16.31      0.00
   0.00000000   0.00000000   0.00000157          0.00      0.00      0.23


     BFGS Geometry Optimization

     number of scf cycles    =   1
     number of bfgs steps    =   0

     energy   new            =    -364.9570709474 Ry

     new trust radius        =       0.0039093961 bohr
     new conv_thr            =       0.0000000100 Ry


ATOMIC_POSITIONS (crystal)
Pb       0.000000000   0.000000000   0.000000000    0   0   0
Ti       0.500000000   0.530000000   0.500000000    0   0   0
O        0.500000000   0.500111534   0.000000000
O        0.500000000  -0.000521949   0.500000000
O        0.000000000   0.500111534   0.500000000



     Writing output data file PbTiO3.save/
     NEW-OLD atomic charge density approx. for the potential

     Check: negative core charge=   -0.000006

     total cpu time spent up to now is      330.5 secs

     Self-consistent Calculation

     iteration #  1     ecut=    80.00 Ry     beta= 0.70
     Davidson diagonalization with overlap
     ethr =  1.00E-06,  avg # of iterations =  2.6

     Threshold (ethr) on eigenvalues was too large:
     Diagonalizing with lowered threshold

     Davidson diagonalization with overlap
     ethr =  8.27E-09,  avg # of iterations =  2.9

     total cpu time spent up to now is      372.0 secs

     total energy              =    -364.95708389 Ry
     Harris-Foulkes estimate   =    -364.95708640 Ry
     estimated scf accuracy    <       0.00000367 Ry

     iteration #  2     ecut=    80.00 Ry     beta= 0.70
     Davidson diagonalization with overlap
     ethr =  8.35E-09,  avg # of iterations =  3.6

     total cpu time spent up to now is      395.5 secs

     total energy              =    -364.95708348 Ry
     Harris-Foulkes estimate   =    -364.95708634 Ry
     estimated scf accuracy    <       0.00000628 Ry

     iteration #  3     ecut=    80.00 Ry     beta= 0.70
     Davidson diagonalization with overlap
     ethr =  8.35E-09,  avg # of iterations =  3.1

     total cpu time spent up to now is      417.8 secs

     total energy              =    -364.95708488 Ry
     Harris-Foulkes estimate   =    -364.95708545 Ry
     estimated scf accuracy    <       0.00000171 Ry

     iteration #  4     ecut=    80.00 Ry     beta= 0.70
     Davidson diagonalization with overlap
     ethr =  3.89E-09,  avg # of iterations =  2.8

     total cpu time spent up to now is      438.0 secs

     total energy              =    -364.95708514 Ry
     Harris-Foulkes estimate   =    -364.95708515 Ry
     estimated scf accuracy    <       0.00000003 Ry

     iteration #  5     ecut=    80.00 Ry     beta= 0.70
     Davidson diagonalization with overlap
     ethr =  6.98E-11,  avg # of iterations =  4.1

     total cpu time spent up to now is      463.7 secs

     total energy              =    -364.95708515 Ry
     Harris-Foulkes estimate   =    -364.95708517 Ry
     estimated scf accuracy    <       0.00000006 Ry

     iteration #  6     ecut=    80.00 Ry     beta= 0.70
     Davidson diagonalization with overlap
     ethr =  6.98E-11,  avg # of iterations =  2.9

     total cpu time spent up to now is      485.2 secs

     End of self-consistent calculation

          k = 0.0500 0.0500 0.0500 (  5047 PWs)   bands (ev):

   -46.1790 -22.4595 -22.4212 -22.4212  -7.2234  -6.2197  -6.1657  -5.0345
    -5.0270  -5.0267  -4.8878  -4.8813   4.4844   6.8231   6.8454   6.9814
     8.9681   8.9858   9.1825   9.3818   9.5284   9.5698  12.4300  12.6415
    12.6428  14.5816

          k = 0.0500 0.0500 0.1500 (  5074 PWs)   bands (ev):

   -46.1788 -22.4591 -22.4319 -22.4208  -7.1393  -6.1871  -6.1349  -5.0424
    -5.0346  -5.0262  -4.9198  -4.8780   4.1875   6.8720   6.9160   7.1683
     8.7350   8.8418   9.1694   9.2675   9.3726   9.5522  12.6431  12.7580
    12.8603  14.6818

          k = 0.0500 0.0500 0.2500 (  5093 PWs)   bands (ev):

   -46.1785 -22.4585 -22.4490 -22.4202  -6.9986  -6.1304  -6.0852  -5.0566
    -5.0462  -5.0253  -4.9763  -4.8720   3.8197   6.8651   7.0415   7.1696
     8.4914   8.5667   9.1043   9.1946   9.3871   9.6204  12.6476  13.2260
    13.2715  14.6821

          k = 0.0500 0.0500 0.3500 (  5090 PWs)   bands (ev):

   -46.1781 -22.4662 -22.4578 -22.4196  -6.8512  -6.0669  -6.0367  -5.0797
    -5.0566  -5.0305  -5.0244  -4.8680   3.5336   6.4875   7.2169   7.3234
     8.1696   8.2512   9.0390   9.2228   9.5068   9.9836  12.6494  13.6554
    13.6935  14.3072

          k = 0.0500 0.0500 0.4500 (  5073 PWs)   bands (ev):

   -46.1779 -22.4767 -22.4574 -22.4192  -6.7561  -6.0207  -6.0101  -5.1095
    -5.0633  -5.0520  -5.0239  -4.8667   3.3862   6.1816   7.3941   7.5710
     7.8902   7.9347   8.9945   9.2631   9.5575  10.4259  12.6449  13.5809
    13.9101  13.9601

          k = 0.0500 0.1500 0.1500 (  5079 PWs)   bands (ev):

   -46.1786 -22.4699 -22.4314 -22.4204  -7.0510  -6.1611  -6.1082  -5.0467
    -5.0408  -5.0330  -4.9139  -4.8955   3.9687   6.8248   6.9434   7.3386
     8.4476   8.6707   9.0335   9.2779   9.3397   9.5826  12.7544  12.9395
    13.1013  14.8646

          k = 0.0500 0.1500 0.2500 (  5077 PWs)   bands (ev):

   -46.1782 -22.4692 -22.4486 -22.4198  -6.9156  -6.1122  -6.0636  -5.0642
    -5.0484  -5.0325  -4.9439  -4.8884   3.6734   6.7782   7.0509   7.2699
     8.1990   8.4547   8.8704   9.1983   9.3268   9.7554  12.9336  13.2293
    13.4430  14.9379

          k = 0.0500 0.1500 0.3500 (  5080 PWs)   bands (ev):

   -46.1779 -22.4687 -22.4655 -22.4192  -6.7770  -6.0632  -6.0131  -5.0847
    -5.0556  -5.0321  -4.9727  -4.8840   3.4271   6.4778   7.1349   7.3306
     7.9248   8.2419   8.8350   9.2277   9.3113  10.0224  12.9301  13.6542
    13.8141  14.4676

          k = 0.0500 0.1500 0.4500 (  5079 PWs)   bands (ev):

   -46.1777 -22.4762 -22.4681 -22.4188  -6.6899  -6.0316  -5.9790  -5.1013
    -5.0624  -5.0317  -4.9828  -4.8854   3.2954   6.1882   7.2422   7.4805
     7.7726   7.9568   8.9006   9.2720   9.2883  10.2348  12.9168  13.9048
    13.9790  14.0585

          k = 0.0500 0.2500 0.2500 (  5076 PWs)   bands (ev):

   -46.1779 -22.4865 -22.4479 -22.4191  -6.7831  -6.0856  -6.0167  -5.0692
    -5.0511  -5.0395  -4.9177  -4.9042   3.4529   6.6841   7.0500   7.1980
     7.9848   8.1326   8.6620   9.0701   9.5269   9.8723  13.2097  13.3781
    13.7284  14.9795

          k = 0.0500 0.2500 0.3500 (  5080 PWs)   bands (ev):

   -46.1776 -22.4858 -22.4648 -22.4185  -6.6696  -6.0500  -5.9564  -5.0784
    -5.0549  -5.0412  -4.9294  -4.8837   3.2588   6.4636   6.9151   7.2710
     7.7671   8.0890   8.5112   8.9662   9.6320   9.9073  13.3535  13.6490
    14.0150  14.7376

          k = 0.0500 0.2500 0.4500 (  5084 PWs)   bands (ev):

   -46.1774 -22.4853 -22.4753 -22.4181  -6.6059  -6.0202  -5.9147  -5.0867
    -5.0609  -5.0427  -4.9230  -4.8806   3.1492   6.1950   6.9579   7.2377
     7.7285   8.0537   8.4347   8.9829   9.6239   9.9198  13.3474  13.8970
    14.2139  14.5642

          k = 0.0500 0.3500 0.3500 (  5079 PWs)   bands (ev):

   -46.1772 -22.5029 -22.4641 -22.4178  -6.5885  -5.9958  -5.8973  -5.0762
    -5.0579  -5.0433  -4.9507  -4.8281   3.0969   6.3504   6.5940   7.3006
     7.6565   7.9541   8.4141   8.8125   9.6049   9.9480  13.6247  13.7767
    14.2287  15.0085

          k = 0.0500 0.3500 0.4500 (  5079 PWs)   bands (ev):

   -46.1770 -22.5024 -22.4745 -22.4174  -6.5604  -5.9526  -5.8446  -5.0785
    -5.0596  -5.0477  -4.9595  -4.7945   3.0052   6.1659   6.5080   7.2998
     7.5535   8.1087   8.2839   8.7307   9.3907  10.0588  13.7636  13.8861
    14.3935  15.1043

          k = 0.0500 0.4500 0.4500 (  5100 PWs)   bands (ev):

   -46.1768 -22.5129 -22.4740 -22.4170  -6.5508  -5.8830  -5.7982  -5.0795
    -5.0584  -5.0488  -4.9830  -4.7448   2.9177   6.0260   6.3540   7.3572
     7.4258   8.1375   8.3102   8.5940   9.0799  10.2322  13.8755  14.0188
    14.5223  15.4071

          k = 0.1500 0.1500 0.1500 (  5095 PWs)   bands (ev):

   -46.1784 -22.4695 -22.4312 -22.4309  -6.9712  -6.1384  -6.0841  -5.0536
    -5.0499  -5.0312  -4.9062  -4.9002   3.8185   6.8174   6.8390   7.4617
     8.2793   8.3508   9.0874   9.3168   9.3840   9.4646  12.9879  13.0943
    13.1068  15.3821

          k = 0.1500 0.1500 0.2500 (  5084 PWs)   bands (ev):

   -46.1780 -22.4688 -22.4481 -22.4304  -6.8414  -6.1017  -6.0415  -5.0710
    -5.0496  -5.0267  -4.9233  -4.8884   3.5916   6.7469   6.8407   7.3093
     8.0072   8.1465   8.9938   9.2731   9.4240   9.6418  13.0631  13.3636
    13.4358  15.1579

          k = 0.1500 0.1500 0.3500 (  5082 PWs)   bands (ev):

   -46.1777 -22.4682 -22.4651 -22.4297  -6.7120  -6.0649  -5.9925  -5.0852
    -5.0431  -5.0185  -4.9469  -4.8838   3.3870   6.4800   6.8408   7.1922
     7.7803   8.2101   8.6913   9.3525   9.4410   9.8741  13.0024  13.7187
    13.7985  14.6486

          k = 0.1500 0.1500 0.4500 (  5084 PWs)   bands (ev):

   -46.1775 -22.4757 -22.4677 -22.4293  -6.6334  -6.0421  -5.9575  -5.0913
    -5.0387  -5.0081  -4.9645  -4.8868   3.2725   6.1948   6.8332   7.2524
     7.6737   8.3131   8.4648   9.4040   9.4331   9.9939  12.9404  13.9464
    14.0365  14.4107

          k = 0.1500 0.2500 0.2500 (  5081 PWs)   bands (ev):

   -46.1777 -22.4861 -22.4474 -22.4297  -6.7066  -6.0780  -6.0209  -5.0729
    -5.0569  -5.0133  -4.8972  -4.8870   3.4440   6.6273   6.7380   7.1257
     7.6707   7.9254   9.0212   9.2103   9.5584   9.7066  13.2613  13.4422
    13.6747  14.9389

          k = 0.1500 0.2500 0.3500 (  5080 PWs)   bands (ev):

   -46.1774 -22.4853 -22.4644 -22.4290  -6.5947  -6.0644  -5.9667  -5.0763
    -5.0482  -4.9993  -4.9017  -4.8682   3.3008   6.4473   6.6750   6.8764
     7.4144   7.9596   8.8904   9.1871   9.6201   9.7411  13.2913  13.6746
    13.9400  14.8964

          k = 0.1500 0.2500 0.4500 (  5077 PWs)   bands (ev):

   -46.1771 -22.4849 -22.4748 -22.4286  -6.5329  -6.0550  -5.9239  -5.0760
    -5.0405  -4.9910  -4.8982  -4.8668   3.2143   6.1967   6.6158   6.8430
     7.3482   8.0544   8.6838   9.2724   9.5370   9.7682  13.2668  13.8941
    14.1413  14.9562

          k = 0.1500 0.3500 0.3500 (  5081 PWs)   bands (ev):

   -46.1770 -22.5024 -22.4636 -22.4284  -6.5048  -6.0273  -5.9398  -5.0712
    -5.0396  -4.9805  -4.9087  -4.8127   3.2008   6.3222   6.5382   6.6557
     7.0653   7.9247   8.8594   9.0965   9.4031   9.9383  13.5299  13.7524
    14.1237  15.1853

          k = 0.1500 0.3500 0.4500 (  5079 PWs)   bands (ev):

   -46.1768 -22.5019 -22.4740 -22.4279  -6.4759  -6.0090  -5.8907  -5.0676
    -5.0243  -4.9765  -4.9149  -4.7793   3.1393   6.1597   6.4497   6.6048
     6.9278   7.9794   8.7241   9.0895   9.1917  10.0547  13.6607  13.8596
    14.2804  15.4438

          k = 0.1500 0.4500 0.4500 (  5073 PWs)   bands (ev):

   -46.1766 -22.5124 -22.4735 -22.4275  -6.4650  -5.9489  -5.8715  -5.0639
    -5.0019  -4.9618  -4.9400  -4.7284   3.0856   6.0143   6.3329   6.6406
     6.7174   7.9863   8.5021   9.0019   9.0960  10.2242  13.8357  13.9400
    14.3973  15.7715

          k = 0.2500 0.2500 0.2500 (  5070 PWs)   bands (ev):

   -46.1774 -22.4854 -22.4469 -22.4466  -6.5897  -6.0673  -6.0164  -5.0617
    -5.0597  -4.9820  -4.8720  -4.8615   3.4108   6.4618   6.4964   7.0199
     7.4033   7.4480   9.1773   9.4716   9.4924   9.6749  13.2826  13.6436
    13.6461  14.9504

          k = 0.2500 0.2500 0.3500 (  5072 PWs)   bands (ev):

   -46.1770 -22.4846 -22.4637 -22.4460  -6.4887  -6.0689  -5.9799  -5.0579
    -5.0433  -4.9443  -4.8544  -4.8431   3.3559   6.2931   6.3700   6.6385
     7.1772   7.4085   8.9331   9.4939   9.5586   9.7991  13.3189  13.7422
    13.9211  15.1574

          k = 0.2500 0.2500 0.4500 (  5073 PWs)   bands (ev):

   -46.1768 -22.4842 -22.4741 -22.4456  -6.4381  -6.0743  -5.9388  -5.0543
    -5.0320  -4.9050  -4.8571  -4.8351   3.3135   6.1690   6.2097   6.4829
     7.1331   7.4505   8.6802   9.5005   9.5553   9.8570  13.3758  13.8797
    14.1229  15.4360

          k = 0.2500 0.3500 0.3500 (  5057 PWs)   bands (ev):

   -46.1767 -22.5017 -22.4629 -22.4453  -6.3759  -6.0649  -5.9988  -5.0475
    -5.0254  -4.9003  -4.8340  -4.7834   3.3797   6.0931   6.1789   6.4382
     6.7881   7.2917   8.4820   9.5841   9.6755   9.9457  13.4939  13.8415
    14.0587  15.4927

          k = 0.2500 0.3500 0.4500 (  5063 PWs)   bands (ev):

   -46.1765 -22.5012 -22.4733 -22.4449  -6.3445  -6.0781  -5.9549  -5.0415
    -5.0100  -4.8659  -4.8289  -4.7497   3.3866   6.0164   6.1023   6.2018
     6.6540   7.3075   8.1144   9.6167   9.6653  10.0578  13.6771  13.8892
    14.2116  15.8539

          k = 0.2500 0.4500 0.4500 (  5070 PWs)   bands (ev):

   -46.1763 -22.5117 -22.4728 -22.4445  -6.3252  -6.0359  -5.9657  -5.0363
    -4.9918  -4.8407  -4.8145  -4.6972   3.4164   5.9180   6.0411   6.0933
     6.4094   7.2913   7.6611   9.6146   9.7052  10.2137  13.8725  13.9551
    14.3152  16.1962

          k = 0.3500 0.3500 0.3500 (  5055 PWs)   bands (ev):

   -46.1763 -22.5010 -22.4623 -22.4621  -6.2778  -6.0779  -6.0365  -5.0219
    -5.0161  -4.8251  -4.7636  -4.7481   3.5688   5.8190   5.8628   6.3143
     6.7361   6.7614   7.8282   9.8605   9.9174  10.0174  13.6541  14.0350
    14.0357  15.8736

          k = 0.3500 0.3500 0.4500 (  5056 PWs)   bands (ev):

   -46.1761 -22.5005 -22.4726 -22.4618  -6.2526  -6.0944  -6.0104  -5.0144
    -5.0028  -4.7694  -4.7429  -4.7127   3.6851   5.6660   5.7705   6.1064
     6.5882   6.7507   7.3360   9.9130   9.9976  10.1253  13.8566  14.0183
    14.2038  16.2668

          k = 0.3500 0.4500 0.4500 (  5051 PWs)   bands (ev):

   -46.1759 -22.5110 -22.4721 -22.4613  -6.1876  -6.1056  -6.0425  -5.0085
    -4.9886  -4.7312  -4.7004  -4.6587   3.8881   5.5525   5.6243   5.9675
     6.3909   6.6850   6.7474  10.0154  10.0951  10.2049  14.0342  14.1033
    14.2762  16.6415

          k = 0.4500 0.4500 0.4500 (  5034 PWs)   bands (ev):

   -46.1757 -22.5106 -22.4717 -22.4717  -6.1558  -6.0943  -6.0808  -4.9925
    -4.9859  -4.6664  -4.6359  -4.6305   4.3833   5.3580   5.3935   5.8647
     5.9502   6.3837   6.4373  10.1900  10.2007  10.2685  14.2005  14.2547
    14.2560  17.0047

          k =-0.0500 0.1500 0.0500 (  5074 PWs)   bands (ev):

   -46.1788 -22.4703 -22.4208 -22.4208  -7.1330  -6.1915  -6.1332  -5.0359
    -5.0343  -5.0331  -4.9156  -4.8832   4.1843   6.8671   6.8848   7.1740
     8.7372   8.7736   9.1802   9.2060   9.5385   9.5400  12.4318  12.9306
    12.9381  14.5826

          k =-0.0500 0.2500 0.0500 (  5093 PWs)   bands (ev):

   -46.1785 -22.4877 -22.4202 -22.4202  -6.9803  -6.1478  -6.0762  -5.0523
    -5.0435  -5.0329  -4.9736  -4.8773   3.8101   6.8460   6.9963   7.1399
     8.4278   8.4738   9.1288   9.2375   9.5766   9.6589  12.4346  13.3622
    13.3765  14.5843

          k =-0.0500 0.3500 0.0500 (  5090 PWs)   bands (ev):

   -46.1781 -22.5050 -22.4195 -22.4195  -6.8175  -6.1080  -6.0119  -5.0798
    -5.0522  -5.0320  -5.0279  -4.8735   3.5170   6.4543   7.1344   7.2486
     8.1341   8.1634   9.0648   9.4270   9.6247  10.0358  12.4363  13.7685
    13.7855  14.3416

          k =-0.0500 0.4500 0.0500 (  5073 PWs)   bands (ev):

   -46.1779 -22.5156 -22.4191 -22.4191  -6.7099  -6.0871  -5.9669  -5.1138
    -5.0571  -5.0496  -5.0315  -4.8724   3.3650   6.1367   7.2517   7.4171
     7.9120   7.9346   9.0235   9.5096   9.6584  10.4819  12.4346  13.6066
    14.0120  14.0304

          k = 0.1500 0.0500 0.1500 (  5079 PWs)   bands (ev):

   -46.1786 -22.4587 -22.4316 -22.4313  -7.0584  -6.1618  -6.1028  -5.0516
    -5.0351  -5.0323  -4.9183  -4.8921   3.9729   6.8223   6.9773   7.3285
     8.5318   8.5541   9.1651   9.1788   9.3436   9.5811  12.8329  12.8820
    13.0112  14.9673

          k =-0.0500 0.2500 0.1500 (  5077 PWs)   bands (ev):

   -46.1782 -22.4872 -22.4308 -22.4198  -6.9039  -6.1204  -6.0607  -5.0634
    -5.0435  -5.0387  -4.9411  -4.8929   3.6673   6.7543   7.0225   7.2654
     8.1453   8.4262   8.8623   9.3074   9.3706   9.7772  12.7555  13.3704
    13.4801  14.9074

          k = 0.2500 0.0500 0.1500 (  5077 PWs)   bands (ev):

   -46.1783 -22.4581 -22.4486 -22.4308  -6.9257  -6.1162  -6.0508  -5.0654
    -5.0433  -5.0325  -4.9477  -4.8893   3.6779   6.7883   7.0575   7.2674
     8.1948   8.3837   8.9072   9.2520   9.3860   9.7102  12.8530  13.2654
    13.4018  15.0123

          k =-0.0500 0.3500 0.1500 (  5080 PWs)   bands (ev):

   -46.1779 -22.5045 -22.4301 -22.4191  -6.7511  -6.0794  -6.0089  -5.0860
    -5.0486  -5.0394  -4.9713  -4.8889   3.4142   6.4328   7.0651   7.3026
     7.8923   8.1833   8.9039   9.2982   9.4162  10.0719  12.7493  13.7759
    13.8483  14.5123

          k = 0.3500 0.0500 0.1500 (  5080 PWs)   bands (ev):

   -46.1779 -22.4657 -22.4574 -22.4301  -6.7913  -6.0604  -6.0009  -5.0840
    -5.0490  -5.0320  -4.9813  -4.8850   3.4315   6.4855   7.1055   7.3518
     7.9051   8.2671   8.7317   9.2962   9.4195  10.0016  12.8421  13.6828
    13.7816  14.4987

          k =-0.0500 0.4500 0.1500 (  5079 PWs)   bands (ev):

   -46.1777 -22.5151 -22.4297 -22.4187  -6.6537  -6.0521  -5.9756  -5.1054
    -5.0540  -5.0392  -4.9820  -4.8905   3.2778   6.1318   7.1159   7.4410
     7.7440   7.9603   8.9961   9.2750   9.4513  10.3012  12.7363  13.9843
    14.0238  14.1095

          k = 0.4500 0.0500 0.1500 (  5079 PWs)   bands (ev):

   -46.1777 -22.4762 -22.4570 -22.4297  -6.7082  -6.0140  -5.9761  -5.1007
    -5.0540  -5.0317  -4.9953  -4.8858   3.2995   6.1900   7.2089   7.4723
     7.7953   7.9976   8.7518   9.2805   9.4614  10.2475  12.8190  13.9440
    13.9938  14.0234

          k = 0.2500 0.0500 0.2500 (  5076 PWs)   bands (ev):

   -46.1779 -22.4575 -22.4480 -22.4477  -6.8127  -6.0822  -5.9942  -5.0680
    -5.0463  -5.0378  -4.9158  -4.9156   3.4640   6.7352   7.0174   7.2378
     7.9836   7.9998   8.8232   9.0682   9.5921   9.7851  13.2016  13.3092
    13.6849  15.0474

          k =-0.0500 0.3500 0.2500 (  5080 PWs)   bands (ev):

   -46.1776 -22.5037 -22.4471 -22.4185  -6.6574  -6.0434  -5.9676  -5.0792
    -5.0526  -5.0437  -4.9302  -4.8848   3.2520   6.4065   6.9345   7.2287
     7.7843   8.0677   8.4883   9.0763   9.5980   9.9651  13.2055  13.7768
    14.0167  14.7762

          k = 0.3500 0.0500 0.2500 (  5080 PWs)   bands (ev):

   -46.1776 -22.4649 -22.4568 -22.4471  -6.7103  -6.0260  -5.9387  -5.0755
    -5.0488  -5.0399  -4.9320  -4.8972   3.2693   6.4896   6.9003   7.2714
     7.7439   8.0217   8.5517   9.0839   9.6506   9.9020  13.2308  13.6800
    13.9774  14.7719

          k =-0.0500 0.4500 0.2500 (  5084 PWs)   bands (ev):

   -46.1774 -22.5142 -22.4467 -22.4181  -6.5871  -5.9958  -5.9450  -5.0903
    -5.0529  -5.0496  -4.9264  -4.8801   3.1379   6.1208   6.9603   7.1902
     7.7696   7.9842   8.4572   9.1123   9.5663  10.0165  13.1959  14.0222
    14.1962  14.6337

          k = 0.4500 0.0500 0.2500 (  5084 PWs)   bands (ev):

   -46.1774 -22.4754 -22.4564 -22.4467  -6.6550  -5.9706  -5.9109  -5.0848
    -5.0522  -5.0428  -4.9250  -4.8976   3.1589   6.2002   6.9713   7.1808
     7.7694   8.0607   8.3318   9.1452   9.5940   9.9931  13.2172  13.9420
    14.1693  14.5870

          k = 0.3500 0.0500 0.3500 (  5079 PWs)   bands (ev):

   -46.1772 -22.4644 -22.4639 -22.4560  -6.6541  -5.9530  -5.8742  -5.0713
    -5.0533  -5.0397  -4.9518  -4.8484   3.1127   6.4472   6.5533   7.2841
     7.5415   7.9636   8.5302   8.8313   9.6032   9.9892  13.6118  13.7095
    14.1904  15.0141

          k =-0.0500 0.4500 0.3500 (  5079 PWs)   bands (ev):

   -46.1770 -22.5134 -22.4636 -22.4174  -6.5554  -5.9303  -5.8663  -5.0805
    -5.0573  -5.0492  -4.9612  -4.7940   3.0007   6.0939   6.5656   7.2464
     7.6309   8.0170   8.2971   8.7991   9.3820  10.0831  13.6242  14.0206
    14.3815  15.1658

          k = 0.4500 0.0500 0.3500 (  5079 PWs)   bands (ev):

   -46.1770 -22.4745 -22.4637 -22.4556  -6.6322  -5.8814  -5.8391  -5.0743
    -5.0523  -5.0464  -4.9620  -4.8170   3.0196   6.1793   6.5604   7.2034
     7.5039   8.1161   8.3298   8.8113   9.3966  10.1301  13.6500  13.9355
    14.3424  15.1221

          k = 0.4500 0.0500 0.4500 (  5100 PWs)   bands (ev):

   -46.1768 -22.4740 -22.4740 -22.4553  -6.6304  -5.8050  -5.7922  -5.0737
    -5.0507  -5.0471  -4.9871  -4.7696   2.9345   6.0687   6.4020   7.2686
     7.2987   8.2461   8.3758   8.5763   9.1213  10.2981  13.9213  13.9378
    14.4626  15.3660

          k =-0.1500 0.2500 0.1500 (  5084 PWs)   bands (ev):

   -46.1780 -22.4868 -22.4305 -22.4303  -6.8272  -6.0996  -6.0529  -5.0707
    -5.0523  -5.0264  -4.9175  -4.8932   3.5849   6.7366   6.7988   7.3152
     8.0040   8.1636   8.8769   9.3841   9.4514   9.6523  12.9649  13.4477
    13.4780  15.1689

          k =-0.1500 0.3500 0.1500 (  5082 PWs)   bands (ev):

   -46.1777 -22.5040 -22.4298 -22.4296  -6.6802  -6.0586  -6.0204  -5.0876
    -5.0478  -5.0152  -4.9399  -4.8890   3.3732   6.4347   6.7641   7.2072
     7.8191   8.1904   8.6375   9.4110   9.4938   9.9171  12.9040  13.8124
    13.8251  14.6697

          k =-0.1500 0.4500 0.1500 (  5084 PWs)   bands (ev):

   -46.1775 -22.5146 -22.4293 -22.4292  -6.5887  -6.0309  -5.9996  -5.0958
    -5.0448  -5.0018  -4.9569  -4.8928   3.2542   6.1366   6.7335   7.2662
     7.7349   8.1992   8.5331   9.4121   9.5198  10.0493  12.8446  14.0443
    14.0445  14.4429

          k = 0.2500 0.1500 0.2500 (  5081 PWs)   bands (ev):

   -46.1777 -22.4682 -22.4476 -22.4472  -6.7266  -6.0787  -6.0026  -5.0709
    -5.0557  -5.0125  -4.8977  -4.8917   3.4513   6.6481   6.7573   7.1179
     7.6464   7.9121   9.1099   9.2049   9.5984   9.6159  13.2784  13.4178
    13.6340  14.9444

          k =-0.1500 0.3500 0.2500 (  5080 PWs)   bands (ev):

   -46.1774 -22.5032 -22.4467 -22.4290  -6.5790  -6.0442  -5.9973  -5.0780
    -5.0509  -4.9945  -4.9012  -4.8701   3.2935   6.3978   6.6291   6.8933
     7.4956   7.9402   8.7657   9.3191   9.6034   9.7772  13.2021  13.7635
    13.9414  14.9104

          k = 0.3500 0.1500 0.2500 (  5080 PWs)   bands (ev):

   -46.1774 -22.4676 -22.4643 -22.4467  -6.6237  -6.0450  -5.9572  -5.0739
    -5.0482  -4.9940  -4.9004  -4.8803   3.3079   6.4666   6.6644   6.8637
     7.4416   7.9209   8.8810   9.2734   9.5710   9.7767  13.2417  13.6998
    13.9089  14.9014

          k =-0.1500 0.4500 0.2500 (  5077 PWs)   bands (ev):

   -46.1771 -22.5138 -22.4462 -22.4286  -6.5081  -6.0069  -5.9878  -5.0795
    -5.0454  -4.9789  -4.9047  -4.8657   3.2021   6.1263   6.5348   6.8850
     7.4619   8.0262   8.5706   9.3851   9.5333   9.8138  13.1703  13.9928
    14.1363  14.9929

          k = 0.4500 0.1500 0.2500 (  5077 PWs)   bands (ev):

   -46.1771 -22.4749 -22.4670 -22.4463  -6.5690  -6.0187  -5.9226  -5.0740
    -5.0415  -4.9793  -4.8993  -4.8826   3.2211   6.2009   6.5913   6.8466
     7.3972   7.9971   8.6832   9.3366   9.4831   9.8433  13.2095  13.9246
    14.1107  14.9627

          k = 0.3500 0.1500 0.3500 (  5081 PWs)   bands (ev):

   -46.1770 -22.4670 -22.4635 -22.4635  -6.5640  -5.9904  -5.9187  -5.0663
    -5.0395  -4.9747  -4.9042  -4.8330   3.2149   6.4372   6.4616   6.6491
     7.0495   7.8930   8.9221   9.1146   9.3571   9.9924  13.5198  13.7241
    14.0933  15.1812

          k =-0.1500 0.4500 0.3500 (  5079 PWs)   bands (ev):

   -46.1768 -22.5130 -22.4631 -22.4279  -6.4694  -5.9720  -5.9306  -5.0689
    -5.0285  -4.9641  -4.9231  -4.7785   3.1342   6.0843   6.5079   6.5552
     7.0033   7.9598   8.6605   9.1182   9.2370  10.0620  13.5687  13.9554
    14.2747  15.4732

          k = 0.4500 0.1500 0.3500 (  5079 PWs)   bands (ev):

   -46.1768 -22.4741 -22.4665 -22.4631  -6.5425  -5.9440  -5.8881  -5.0629
    -5.0269  -4.9626  -4.9145  -4.8022   3.1525   6.1748   6.4802   6.5601
     6.9433   7.9323   8.7458   9.1137   9.2001  10.1210  13.5953  13.8910
    14.2470  15.4484

          k = 0.4500 0.1500 0.4500 (  5073 PWs)   bands (ev):

   -46.1766 -22.4736 -22.4736 -22.4659  -6.5418  -5.8778  -5.8662  -5.0582
    -5.0039  -4.9505  -4.9366  -4.7542   3.1025   6.0604   6.3828   6.5982
     6.6617   7.9494   8.5455   9.0553   9.0712  10.2925  13.8579  13.8921
    14.3637  15.7601

          k =-0.2500 0.3500 0.2500 (  5072 PWs)   bands (ev):

   -46.1770 -22.5025 -22.4461 -22.4459  -6.4629  -6.0410  -6.0304  -5.0613
    -5.0434  -4.9436  -4.8565  -4.8374   3.3475   6.2492   6.3600   6.6316
     7.3000   7.3442   8.8777   9.5231   9.6014   9.7718  13.2842  13.7899
    13.9268  15.1614

          k =-0.2500 0.4500 0.2500 (  5073 PWs)   bands (ev):

   -46.1768 -22.5130 -22.4457 -22.4455  -6.3960  -6.0392  -6.0108  -5.0588
    -5.0331  -4.9008  -4.8648  -4.8247   3.2993   6.1174   6.1351   6.5382
     7.2666   7.3850   8.6262   9.4920   9.6342   9.8261  13.3243  13.9505
    14.1287  15.4551

          k = 0.3500 0.2500 0.3500 (  5057 PWs)   bands (ev):

   -46.1767 -22.4840 -22.4630 -22.4628  -6.4176  -6.0420  -5.9816  -5.0425
    -5.0286  -4.8945  -4.8246  -4.8021   3.3891   6.1240   6.1591   6.4387
     6.8128   7.2497   8.4961   9.6096   9.6182   9.9993  13.4932  13.8310
    14.0431  15.4900

          k =-0.2500 0.4500 0.3500 (  5063 PWs)   bands (ev):

   -46.1765 -22.5122 -22.4624 -22.4449  -6.3319  -6.0314  -6.0119  -5.0430
    -5.0107  -4.8616  -4.8327  -4.7476   3.3801   5.9341   6.1274   6.2147
     6.7173   7.2853   8.1091   9.5818   9.7085  10.0535  13.6260  13.9493
    14.2108  15.8604

          k = 0.4500 0.2500 0.3500 (  5063 PWs)   bands (ev):

   -46.1765 -22.4835 -22.4733 -22.4625  -6.3962  -6.0285  -5.9539  -5.0371
    -5.0138  -4.8518  -4.8240  -4.7712   3.3961   5.9907   6.1451   6.1719
     6.7085   7.2512   8.1288   9.6154   9.6450  10.1169  13.6541  13.9017
    14.1961  15.8514

          k = 0.4500 0.2500 0.4500 (  5070 PWs)   bands (ev):

   -46.1763 -22.4831 -22.4729 -22.4728  -6.3966  -5.9717  -5.9611  -5.0307
    -4.9965  -4.8204  -4.8106  -4.7246   3.4331   5.9724   6.0099   6.0626
     6.4405   7.2367   7.6912   9.6510   9.6514  10.2835  13.8825  13.9336
    14.2962  16.1868

          k =-0.3500 0.4500 0.3500 (  5056 PWs)   bands (ev):

   -46.1761 -22.5115 -22.4618 -22.4617  -6.2130  -6.0750  -6.0675  -5.0185
    -4.9994  -4.7808  -4.7401  -4.7028   3.6753   5.6255   5.8304   6.0701
     6.6104   6.7504   7.3331   9.9513   9.9886  10.0832  13.8318  14.0512
    14.2072  16.2677

          k = 0.4500 0.3500 0.4500 (  5051 PWs)   bands (ev):

   -46.1759 -22.5001 -22.4722 -22.4721  -6.2496  -6.0492  -6.0386  -5.0031
    -4.9938  -4.7101  -4.6963  -4.6846   3.9021   5.5642   5.5843   5.9820
     6.4360   6.6417   6.7517  10.0266  10.0323  10.2745  14.0427  14.0976
    14.2637  16.6383

     the Fermi energy is    10.4135 ev

!    total energy              =    -364.95708516 Ry
     Harris-Foulkes estimate   =    -364.95708516 Ry
     estimated scf accuracy    <          1.4E-09 Ry

     The total energy is the sum of the following terms:

     one-electron contribution =     -83.05699348 Ry
     hartree contribution      =      70.90970538 Ry
     xc contribution           =     -85.81064251 Ry
     ewald contribution        =    -267.00532097 Ry
     smearing contrib. (-TS)   =       0.00616643 Ry

     convergence has been achieved in   6 iterations

     Forces acting on atoms (cartesian axes, Ry/au):

     atom    1 type  1   force =     0.00000000    0.01139216    0.00000000
     atom    2 type  2   force =     0.00000000   -0.00944705    0.00000000
     atom    3 type  3   force =     0.00000000    0.00043397    0.00000000
     atom    4 type  3   force =     0.00000000   -0.00281304    0.00000000
     atom    5 type  3   force =     0.00000000    0.00043397    0.00000000

     Total force =     0.002879     Total SCF correction =     0.000009


     Computing stress (Cartesian axis) and pressure

          total   stress  (Ry/bohr**3)                   (kbar)     P=    5.97
   0.00000266   0.00000000   0.00000000          0.39      0.00      0.00
   0.00000000   0.00011648   0.00000000          0.00     17.13      0.00
   0.00000000   0.00000000   0.00000266          0.00      0.00      0.39


     number of scf cycles    =   2
     number of bfgs steps    =   1

     energy   old            =    -364.9570709474 Ry
     energy   new            =    -364.9570851586 Ry

     CASE: energy  _new < energy  _old

     new trust radius        =       0.0043003357 bohr
     new conv_thr            =            1.0E-10 Ry


ATOMIC_POSITIONS (crystal)
Pb       0.000000000   0.000000000   0.000000000    0   0   0
Ti       0.500000000   0.530000000   0.500000000    0   0   0
O        0.500000000   0.500200590   0.000000000
O        0.500000000  -0.001096092   0.500000000
O        0.000000000   0.500200590   0.500000000



     Writing output data file PbTiO3.save/
     NEW-OLD atomic charge density approx. for the potential

     Check: negative core charge=   -0.000006

     total cpu time spent up to now is      502.6 secs

     Self-consistent Calculation

     iteration #  1     ecut=    80.00 Ry     beta= 0.70
     Davidson diagonalization with overlap
     ethr =  1.00E-06,  avg # of iterations =  2.7

     Threshold (ethr) on eigenvalues was too large:
     Diagonalizing with lowered threshold

     Davidson diagonalization with overlap
     ethr =  1.01E-08,  avg # of iterations =  2.7

     total cpu time spent up to now is      543.8 secs

     total energy              =    -364.95709347 Ry
     Harris-Foulkes estimate   =    -364.95709654 Ry
     estimated scf accuracy    <       0.00000448 Ry

     iteration #  2     ecut=    80.00 Ry     beta= 0.70
     Davidson diagonalization with overlap
     ethr =  1.02E-08,  avg # of iterations =  3.7

     total cpu time spent up to now is      567.7 secs

     total energy              =    -364.95709284 Ry
     Harris-Foulkes estimate   =    -364.95709672 Ry
     estimated scf accuracy    <       0.00000889 Ry

     iteration #  3     ecut=    80.00 Ry     beta= 0.70
     Davidson diagonalization with overlap
     ethr =  1.02E-08,  avg # of iterations =  3.1

     total cpu time spent up to now is      590.1 secs

     total energy              =    -364.95709477 Ry
     Harris-Foulkes estimate   =    -364.95709539 Ry
     estimated scf accuracy    <       0.00000184 Ry

     iteration #  4     ecut=    80.00 Ry     beta= 0.70
     Davidson diagonalization with overlap
     ethr =  4.19E-09,  avg # of iterations =  2.7

     total cpu time spent up to now is      610.4 secs

     total energy              =    -364.95709504 Ry
     Harris-Foulkes estimate   =    -364.95709507 Ry
     estimated scf accuracy    <       0.00000004 Ry

     iteration #  5     ecut=    80.00 Ry     beta= 0.70
     Davidson diagonalization with overlap
     ethr =  9.50E-11,  avg # of iterations =  3.9

     total cpu time spent up to now is      635.8 secs

     total energy              =    -364.95709506 Ry
     Harris-Foulkes estimate   =    -364.95709508 Ry
     estimated scf accuracy    <       0.00000007 Ry

     iteration #  6     ecut=    80.00 Ry     beta= 0.70
     Davidson diagonalization with overlap
     ethr =  9.50E-11,  avg # of iterations =  2.9

     total cpu time spent up to now is      657.1 secs

     total energy              =    -364.95709507 Ry
     Harris-Foulkes estimate   =    -364.95709507 Ry
     estimated scf accuracy    <          1.4E-09 Ry

     iteration #  7     ecut=    80.00 Ry     beta= 0.70
     Davidson diagonalization with overlap
     ethr =  3.28E-12,  avg # of iterations =  3.4

     total cpu time spent up to now is      680.8 secs

     total energy              =    -364.95709507 Ry
     Harris-Foulkes estimate   =    -364.95709507 Ry
     estimated scf accuracy    <          1.1E-10 Ry

     iteration #  8     ecut=    80.00 Ry     beta= 0.70
     Davidson diagonalization with overlap
     ethr =  2.40E-13,  avg # of iterations =  3.0

     total cpu time spent up to now is      703.4 secs

     End of self-consistent calculation

          k = 0.0500 0.0500 0.0500 (  5047 PWs)   bands (ev):

   -46.1758 -22.4580 -22.4181 -22.4180  -7.2233  -6.2206  -6.1652  -5.0352
    -5.0275  -5.0272  -4.8884  -4.8817   4.4840   6.8231   6.8461   6.9819
     8.9646   8.9820   9.1830   9.3799   9.5289   9.5684  12.4324  12.6469
    12.6482  14.5843

          k = 0.0500 0.0500 0.1500 (  5074 PWs)   bands (ev):

   -46.1756 -22.4577 -22.4287 -22.4177  -7.1392  -6.1879  -6.1344  -5.0431
    -5.0351  -5.0267  -4.9203  -4.8785   4.1870   6.8722   6.9168   7.1688
     8.7314   8.8398   9.1694   9.2655   9.3727   9.5505  12.6484  12.7605
    12.8650  14.6874

          k = 0.0500 0.0500 0.2500 (  5093 PWs)   bands (ev):

   -46.1753 -22.4571 -22.4459 -22.4171  -6.9986  -6.1312  -6.0846  -5.0572
    -5.0467  -5.0258  -4.9768  -4.8725   3.8192   6.8659   7.0420   7.1699
     8.4894   8.5655   9.1038   9.1930   9.3854   9.6190  12.6531  13.2285
    13.2756  14.6879

          k = 0.0500 0.0500 0.3500 (  5090 PWs)   bands (ev):

   -46.1749 -22.4631 -22.4563 -22.4164  -6.8514  -6.0674  -6.0362  -5.0802
    -5.0572  -5.0310  -5.0249  -4.8684   3.5330   6.4882   7.2170   7.3238
     8.1692   8.2508   9.0385   9.2190   9.5052   9.9825  12.6550  13.6579
    13.6972  14.3072

          k = 0.0500 0.0500 0.4500 (  5073 PWs)   bands (ev):

   -46.1747 -22.4736 -22.4560 -22.4160  -6.7564  -6.0207  -6.0100  -5.1101
    -5.0640  -5.0525  -5.0244  -4.8672   3.3857   6.1822   7.3938   7.5713
     7.8903   7.9352   8.9940   9.2586   9.5559  10.4248  12.6503  13.5808
    13.9127  13.9643

          k = 0.0500 0.1500 0.1500 (  5079 PWs)   bands (ev):

   -46.1754 -22.4684 -22.4283 -22.4173  -7.0508  -6.1620  -6.1076  -5.0472
    -5.0414  -5.0335  -4.9144  -4.8961   3.9682   6.8251   6.9434   7.3395
     8.4450   8.6686   9.0317   9.2774   9.3397   9.5825  12.7569  12.9445
    13.1059  14.8681

          k = 0.0500 0.1500 0.2500 (  5077 PWs)   bands (ev):

   -46.1750 -22.4678 -22.4455 -22.4166  -6.9155  -6.1131  -6.0630  -5.0647
    -5.0491  -5.0330  -4.9444  -4.8888   3.6728   6.7785   7.0512   7.2707
     8.1974   8.4535   8.8695   9.1962   9.3261   9.7551  12.9386  13.2318
    13.4472  14.9419

          k = 0.0500 0.1500 0.3500 (  5080 PWs)   bands (ev):

   -46.1747 -22.4672 -22.4625 -22.4160  -6.7770  -6.0640  -6.0125  -5.0852
    -5.0562  -5.0326  -4.9731  -4.8844   3.4266   6.4783   7.1353   7.3308
     7.9241   8.2415   8.8337   9.2251   9.3105  10.0217  12.9352  13.6567
    13.8181  14.4678

          k = 0.0500 0.1500 0.4500 (  5079 PWs)   bands (ev):

   -46.1745 -22.4731 -22.4666 -22.4156  -6.6900  -6.0324  -5.9784  -5.1018
    -5.0631  -5.0322  -4.9832  -4.8858   3.2948   6.1887   7.2421   7.4809
     7.7725   7.9569   8.8988   9.2703   9.2868  10.2337  12.9218  13.9073
    13.9790  14.0628

          k = 0.0500 0.2500 0.2500 (  5076 PWs)   bands (ev):

   -46.1747 -22.4850 -22.4447 -22.4160  -6.7828  -6.0864  -6.0164  -5.0698
    -5.0517  -5.0400  -4.9182  -4.9046   3.4522   6.6834   7.0515   7.1980
     7.9835   8.1319   8.6606   9.0698   9.5257   9.8726  13.2122  13.3826
    13.7325  14.9810

          k = 0.0500 0.2500 0.3500 (  5080 PWs)   bands (ev):

   -46.1744 -22.4843 -22.4617 -22.4154  -6.6693  -6.0508  -5.9560  -5.0790
    -5.0556  -5.0417  -4.9299  -4.8841   3.2582   6.4637   6.9157   7.2709
     7.7667   8.0884   8.5112   8.9641   9.6305   9.9072  13.3580  13.6516
    14.0190  14.7382

          k = 0.0500 0.2500 0.4500 (  5084 PWs)   bands (ev):

   -46.1742 -22.4838 -22.4722 -22.4150  -6.6057  -6.0213  -5.9140  -5.0873
    -5.0616  -5.0432  -4.9234  -4.8810   3.1486   6.1955   6.9579   7.2376
     7.7280   8.0540   8.4349   8.9803   9.6227   9.9190  13.3520  13.8996
    14.2180  14.5646

          k = 0.0500 0.3500 0.3500 (  5079 PWs)   bands (ev):

   -46.1740 -22.5014 -22.4609 -22.4147  -6.5880  -5.9969  -5.8969  -5.0768
    -5.0585  -5.0438  -4.9513  -4.8284   3.0961   6.3495   6.5951   7.3003
     7.6567   7.9539   8.4134   8.8118   9.6033   9.9479  13.6272  13.7810
    14.2329  15.0093

          k = 0.0500 0.3500 0.4500 (  5079 PWs)   bands (ev):

   -46.1738 -22.5009 -22.4714 -22.4143  -6.5599  -5.9540  -5.8439  -5.0791
    -5.0603  -5.0482  -4.9600  -4.7948   3.0045   6.1663   6.5075   7.3000
     7.5533   8.1092   8.2844   8.7286   9.3893  10.0579  13.7679  13.8887
    14.3977  15.1053

          k = 0.0500 0.4500 0.4500 (  5100 PWs)   bands (ev):

   -46.1736 -22.5114 -22.4709 -22.4139  -6.5502  -5.8846  -5.7974  -5.0801
    -5.0591  -5.0492  -4.9835  -4.7451   2.9170   6.0260   6.3537   7.3574
     7.4263   8.1380   8.3102   8.5925   9.0783  10.2313  13.8781  14.0230
    14.5267  15.4096

          k = 0.1500 0.1500 0.1500 (  5095 PWs)   bands (ev):

   -46.1752 -22.4680 -22.4280 -22.4278  -6.9711  -6.1393  -6.0836  -5.0542
    -5.0504  -5.0317  -4.9068  -4.9006   3.8180   6.8173   6.8394   7.4625
     8.2773   8.3498   9.0835   9.3175   9.3837   9.4643  12.9904  13.0988
    13.1113  15.3848

          k = 0.1500 0.1500 0.2500 (  5084 PWs)   bands (ev):

   -46.1748 -22.4674 -22.4450 -22.4272  -6.8414  -6.1024  -6.0410  -5.0716
    -5.0501  -5.0273  -4.9239  -4.8889   3.5911   6.7472   6.8408   7.3097
     8.0063   8.1452   8.9925   9.2715   9.4235   9.6417  13.0675  13.3665
    13.4396  15.1577

          k = 0.1500 0.1500 0.3500 (  5082 PWs)   bands (ev):

   -46.1745 -22.4667 -22.4620 -22.4266  -6.7122  -6.0655  -5.9919  -5.0858
    -5.0436  -5.0191  -4.9475  -4.8842   3.3865   6.4806   6.8404   7.1924
     7.7801   8.2087   8.6907   9.3508   9.4403   9.8736  13.0065  13.7216
    13.8020  14.6487

          k = 0.1500 0.1500 0.4500 (  5084 PWs)   bands (ev):

   -46.1743 -22.4726 -22.4662 -22.4262  -6.6338  -6.0425  -5.9569  -5.0918
    -5.0392  -5.0087  -4.9650  -4.8872   3.2720   6.1954   6.8327   7.2525
     7.6738   8.3123   8.4633   9.4027   9.4324   9.9933  12.9442  13.9492
    14.0401  14.4111

          k = 0.1500 0.2500 0.2500 (  5081 PWs)   bands (ev):

   -46.1745 -22.4846 -22.4443 -22.4266  -6.7064  -6.0788  -6.0204  -5.0735
    -5.0575  -5.0138  -4.8978  -4.8874   3.4434   6.6268   6.7379   7.1266
     7.6701   7.9250   9.0175   9.2112   9.5575   9.7071  13.2639  13.4462
    13.6787  14.9390

          k = 0.1500 0.2500 0.3500 (  5080 PWs)   bands (ev):

   -46.1742 -22.4839 -22.4613 -22.4259  -6.5946  -6.0652  -5.9662  -5.0769
    -5.0487  -4.9999  -4.9023  -4.8686   3.3002   6.4473   6.6749   6.8766
     7.4139   7.9594   8.8901   9.1850   9.6189   9.7414  13.2950  13.6773
    13.9438  14.8970

          k = 0.1500 0.2500 0.4500 (  5077 PWs)   bands (ev):

   -46.1739 -22.4834 -22.4717 -22.4255  -6.5328  -6.0559  -5.9232  -5.0766
    -5.0410  -4.9917  -4.8986  -4.8672   3.2137   6.1972   6.6156   6.8428
     7.3477   8.0541   8.6838   9.2706   9.5360   9.7678  13.2705  13.8966
    14.1451  14.9568

          k = 0.1500 0.3500 0.3500 (  5081 PWs)   bands (ev):

[...]
    -5.0610  -4.9833  -4.8735  -4.8623   3.4095   6.4602   6.4961   7.0209
     7.4025   7.4488   9.1679   9.4736   9.4936   9.6738  13.2887  13.6530
    13.6541  14.9519

          k = 0.2500 0.2500 0.3500 (  5072 PWs)   bands (ev):

   -46.1692 -22.4811 -22.4561 -22.4384  -6.4894  -6.0699  -5.9785  -5.0593
    -5.0447  -4.9456  -4.8559  -4.8439   3.3548   6.2929   6.3683   6.6395
     7.1761   7.4095   8.9295   9.4913   9.5586   9.7988  13.3256  13.7496
    13.9291  15.1593

          k = 0.2500 0.2500 0.4500 (  5073 PWs)   bands (ev):

   -46.1690 -22.4806 -22.4665 -22.4380  -6.4393  -6.0750  -5.9372  -5.0555
    -5.0333  -4.9065  -4.8581  -4.8363   3.3124   6.1694   6.2095   6.4820
     7.1319   7.4510   8.6783   9.4997   9.5527   9.8569  13.3834  13.8858
    14.1309  15.4375

          k = 0.2500 0.3500 0.3500 (  5057 PWs)   bands (ev):

   -46.1689 -22.4981 -22.4553 -22.4377  -6.3752  -6.0670  -5.9978  -5.0490
    -5.0267  -4.9018  -4.8352  -4.7841   3.3782   6.0906   6.1781   6.4407
     6.7884   7.2931   8.4785   9.5811   9.6768   9.9435  13.4996  13.8494
    14.0671  15.4948

          k = 0.2500 0.3500 0.4500 (  5063 PWs)   bands (ev):

   -46.1687 -22.4977 -22.4657 -22.4373  -6.3440  -6.0806  -5.9535  -5.0429
    -5.0112  -4.8678  -4.8297  -4.7503   3.3852   6.0165   6.0989   6.2048
     6.6537   7.3089   8.1121   9.6132   9.6665  10.0556  13.6847  13.8954
    14.2196  15.8554

          k = 0.2500 0.4500 0.4500 (  5070 PWs)   bands (ev):

   -46.1685 -22.5082 -22.4653 -22.4369  -6.3239  -6.0393  -5.9643  -5.0377
    -4.9930  -4.8429  -4.8150  -4.6977   3.4147   5.9134   6.0429   6.0964
     6.4099   7.2928   7.6582   9.6111   9.7067  10.2109  13.8785  13.9631
    14.3231  16.1975

          k = 0.3500 0.3500 0.3500 (  5055 PWs)   bands (ev):

   -46.1686 -22.4974 -22.4547 -22.4545  -6.2786  -6.0790  -6.0352  -5.0235
    -5.0172  -4.8265  -4.7650  -4.7486   3.5675   5.8162   5.8626   6.3157
     6.7361   6.7635   7.8260   9.8573   9.9167  10.0172  13.6599  14.0429
    14.0431  15.8756

          k = 0.3500 0.3500 0.4500 (  5056 PWs)   bands (ev):

   -46.1683 -22.4970 -22.4650 -22.4542  -6.2544  -6.0945  -6.0090  -5.0157
    -5.0041  -4.7709  -4.7438  -4.7136   3.6841   5.6651   5.7678   6.1085
     6.5887   6.7518   7.3347   9.9100   9.9961  10.1257  13.8634  14.0249
    14.2111  16.2680

          k = 0.3500 0.4500 0.4500 (  5051 PWs)   bands (ev):

   -46.1681 -22.5075 -22.4646 -22.4537  -6.1867  -6.1085  -6.0412  -5.0100
    -4.9898  -4.7336  -4.7008  -4.6591   3.8865   5.5496   5.6251   5.9701
     6.3907   6.6860   6.7460  10.0121  10.0965  10.2021  14.0405  14.1106
    14.2837  16.6426

          k = 0.4500 0.4500 0.4500 (  5034 PWs)   bands (ev):

   -46.1679 -22.5070 -22.4641 -22.4641  -6.1588  -6.0933  -6.0797  -4.9940
    -4.9871  -4.6689  -4.6363  -4.6308   4.3819   5.3550   5.3933   5.8676
     5.9489   6.3823   6.4402  10.1870  10.1978  10.2700  14.2070  14.2616
    14.2634  17.0052

          k =-0.0500 0.1500 0.0500 (  5074 PWs)   bands (ev):

   -46.1710 -22.4667 -22.4132 -22.4132  -7.1325  -6.1938  -6.1319  -5.0371
    -5.0358  -5.0344  -4.9166  -4.8846   4.1829   6.8675   6.8845   7.1758
     8.7304   8.7654   9.1807   9.2013   9.5388   9.5414  12.4377  12.9428
    12.9504  14.5893

          k =-0.0500 0.2500 0.0500 (  5093 PWs)   bands (ev):

   -46.1707 -22.4841 -22.4126 -22.4125  -6.9794  -6.1503  -6.0747  -5.0536
    -5.0447  -5.0346  -4.9747  -4.8787   3.8082   6.8461   6.9955   7.1407
     8.4225   8.4670   9.1296   9.2365   9.5782   9.6592  12.4405  13.3733
    13.3877  14.5910

          k =-0.0500 0.3500 0.0500 (  5090 PWs)   bands (ev):

   -46.1703 -22.5014 -22.4119 -22.4119  -6.8161  -6.1111  -6.0102  -5.0812
    -5.0534  -5.0337  -5.0291  -4.8750   3.5143   6.4554   7.1328   7.2482
     8.1303   8.1581   9.0658   9.4282   9.6263  10.0359  12.4422  13.7790
    13.7961  14.3418

          k =-0.0500 0.4500 0.0500 (  5073 PWs)   bands (ev):

   -46.1701 -22.5120 -22.4115 -22.4115  -6.7080  -6.0906  -5.9651  -5.1153
    -5.0582  -5.0507  -5.0331  -4.8740   3.3618   6.1385   7.2490   7.4161
     7.9076   7.9323   9.0247   9.5111   9.6600  10.4823  12.4405  13.6066
    14.0222  14.0409

          k = 0.1500 0.0500 0.1500 (  5079 PWs)   bands (ev):

   -46.1708 -22.4551 -22.4240 -22.4237  -7.0584  -6.1636  -6.1014  -5.0531
    -5.0362  -5.0335  -4.9197  -4.8931   3.9718   6.8225   6.9797   7.3293
     8.5302   8.5460   9.1547   9.1821   9.3438   9.5781  12.8442  12.8935
    13.0174  14.9837

          k =-0.0500 0.2500 0.1500 (  5077 PWs)   bands (ev):

   -46.1705 -22.4836 -22.4232 -22.4121  -6.9031  -6.1229  -6.0593  -5.0646
    -5.0449  -5.0401  -4.9422  -4.8943   3.6655   6.7534   7.0222   7.2681
     8.1404   8.4209   8.8607   9.3068   9.3714   9.7776  12.7613  13.3816
    13.4906  14.9145

          k = 0.2500 0.0500 0.1500 (  5077 PWs)   bands (ev):

   -46.1705 -22.4545 -22.4410 -22.4232  -6.9260  -6.1176  -6.0493  -5.0668
    -5.0445  -5.0337  -4.9491  -4.8904   3.6769   6.7895   7.0592   7.2674
     8.1936   8.3766   8.9064   9.2485   9.3857   9.7064  12.8643  13.2752
    13.4077  15.0268

          k =-0.0500 0.3500 0.1500 (  5080 PWs)   bands (ev):

   -46.1701 -22.5009 -22.4225 -22.4115  -6.7497  -6.0823  -6.0074  -5.0874
    -5.0497  -5.0410  -4.9723  -4.8904   3.4118   6.4324   7.0648   7.3040
     7.8886   8.1780   8.9047   9.2976   9.4177  10.0724  12.7550  13.7864
    13.8584  14.5127

          k = 0.3500 0.0500 0.1500 (  5080 PWs)   bands (ev):

   -46.1701 -22.4582 -22.4537 -22.4225  -6.7922  -6.0612  -5.9993  -5.0853
    -5.0502  -5.0332  -4.9830  -4.8861   3.4305   6.4872   7.1046   7.3523
     7.9053   8.2654   8.7240   9.2949   9.4196   9.9983  12.8526  13.6919
    13.7875  14.4986

          k =-0.0500 0.4500 0.1500 (  5079 PWs)   bands (ev):

   -46.1699 -22.5115 -22.4221 -22.4111  -6.6518  -6.0556  -5.9738  -5.1070
    -5.0551  -5.0409  -4.9830  -4.8919   3.2750   6.1324   7.1146   7.4431
     7.7397   7.9559   8.9975   9.2745   9.4529  10.3017  12.7420  13.9881
    14.0339  14.1163

          k = 0.4500 0.0500 0.1500 (  5079 PWs)   bands (ev):

   -46.1699 -22.4686 -22.4534 -22.4221  -6.7095  -6.0144  -5.9745  -5.1020
    -5.0551  -5.0329  -4.9971  -4.8868   3.2984   6.1916   7.2064   7.4724
     7.7976   7.9991   8.7398   9.2794   9.4621  10.2456  12.8279  13.9527
    13.9957  14.0290

          k = 0.2500 0.0500 0.2500 (  5076 PWs)   bands (ev):

   -46.1701 -22.4539 -22.4404 -22.4401  -6.8136  -6.0829  -5.9926  -5.0693
    -5.0475  -5.0390  -4.9173  -4.9169   3.4632   6.7362   7.0191   7.2377
     7.9822   7.9907   8.8285   9.0631   9.5924   9.7812  13.2106  13.3187
    13.6908  15.0510

          k =-0.0500 0.3500 0.2500 (  5080 PWs)   bands (ev):

   -46.1698 -22.5001 -22.4395 -22.4108  -6.6561  -6.0457  -5.9669  -5.0807
    -5.0541  -5.0450  -4.9315  -4.8858   3.2501   6.4044   6.9387   7.2269
     7.7835   8.0647   8.4862   9.0772   9.5946   9.9665  13.2112  13.7874
    14.0264  14.7772

          k = 0.3500 0.0500 0.2500 (  5080 PWs)   bands (ev):

   -46.1698 -22.4574 -22.4531 -22.4395  -6.7120  -6.0258  -5.9371  -5.0767
    -5.0500  -5.0411  -4.9333  -4.8989   3.2686   6.4913   6.9008   7.2694
     7.7407   8.0162   8.5538   9.0837   9.6497   9.9007  13.2386  13.6887
    13.9834  14.7722

          k =-0.0500 0.4500 0.2500 (  5084 PWs)   bands (ev):

   -46.1696 -22.5107 -22.4391 -22.4104  -6.5854  -5.9990  -5.9437  -5.0918
    -5.0541  -5.0511  -4.9278  -4.8809   3.1356   6.1197   6.9637   7.1874
     7.7710   7.9785   8.4574   9.1136   9.5629  10.0177  13.2016  14.0326
    14.2063  14.6340

          k = 0.4500 0.0500 0.2500 (  5084 PWs)   bands (ev):

   -46.1696 -22.4678 -22.4528 -22.4391  -6.6572  -5.9699  -5.9092  -5.0860
    -5.0533  -5.0440  -4.9263  -4.8995   3.1582   6.2017   6.9722   7.1764
     7.7672   8.0606   8.3271   9.1476   9.5925   9.9936  13.2236  13.9505
    14.1755  14.5874

          k = 0.3500 0.0500 0.3500 (  5079 PWs)   bands (ev):

   -46.1694 -22.4569 -22.4564 -22.4523  -6.6566  -5.9520  -5.8725  -5.0725
    -5.0545  -5.0408  -4.9531  -4.8504   3.1122   6.4483   6.5555   7.2793
     7.5316   7.9642   8.5357   8.8302   9.6021   9.9903  13.6181  13.7175
    14.1966  15.0148

          k =-0.0500 0.4500 0.3500 (  5079 PWs)   bands (ev):

   -46.1692 -22.5098 -22.4560 -22.4098  -6.5538  -5.9338  -5.8648  -5.0820
    -5.0589  -5.0504  -4.9625  -4.7947   2.9988   6.0922   6.5675   7.2458
     7.6326   8.0160   8.2944   8.7993   9.3787  10.0821  13.6300  14.0310
    14.3917  15.1676

          k = 0.4500 0.0500 0.3500 (  5079 PWs)   bands (ev):

   -46.1692 -22.4670 -22.4561 -22.4520  -6.6351  -5.8799  -5.8373  -5.0754
    -5.0534  -5.0475  -4.9633  -4.8191   3.0192   6.1805   6.5627   7.1960
     7.4947   8.1176   8.3331   8.8134   9.3964  10.1314  13.6560  13.9429
    14.3488  15.1228

          k = 0.4500 0.0500 0.4500 (  5100 PWs)   bands (ev):

   -46.1690 -22.4665 -22.4664 -22.4517  -6.6336  -5.8031  -5.7902  -5.0749
    -5.0519  -5.0482  -4.9887  -4.7717   2.9343   6.0696   6.4048   7.2592
     7.2886   8.2492   8.3813   8.5772   9.1221  10.2995  13.9276  13.9446
    14.4691  15.3723

          k =-0.1500 0.2500 0.1500 (  5084 PWs)   bands (ev):

   -46.1703 -22.4832 -22.4229 -22.4226  -6.8265  -6.1021  -6.0514  -5.0720
    -5.0538  -5.0277  -4.9184  -4.8946   3.5832   6.7360   6.7977   7.3183
     8.0012   8.1615   8.8698   9.3850   9.4513   9.6528  12.9706  13.4581
    13.4886  15.1686

          k =-0.1500 0.3500 0.1500 (  5082 PWs)   bands (ev):

   -46.1699 -22.5004 -22.4222 -22.4220  -6.6789  -6.0617  -6.0188  -5.0891
    -5.0493  -5.0164  -4.9409  -4.8904   3.3710   6.4342   6.7620   7.2103
     7.8180   8.1873   8.6335   9.4109   9.4947   9.9178  12.9095  13.8223
    13.8351  14.6701

          k =-0.1500 0.4500 0.1500 (  5084 PWs)   bands (ev):

   -46.1697 -22.5110 -22.4217 -22.4216  -6.5868  -6.0345  -5.9979  -5.0974
    -5.0464  -5.0029  -4.9577  -4.8943   3.2516   6.1370   6.7308   7.2690
     7.7347   8.1935   8.5324   9.4117   9.5211  10.0498  12.8500  14.0541
    14.0545  14.4434

          k = 0.2500 0.1500 0.2500 (  5081 PWs)   bands (ev):

   -46.1699 -22.4646 -22.4400 -22.4396  -6.7273  -6.0798  -6.0010  -5.0722
    -5.0570  -5.0137  -4.8993  -4.8927   3.4503   6.6482   6.7577   7.1184
     7.6425   7.9119   9.1041   9.2063   9.5960   9.6159  13.2872  13.4273
    13.6402  14.9445

          k =-0.1500 0.3500 0.2500 (  5080 PWs)   bands (ev):

   -46.1696 -22.4996 -22.4391 -22.4214  -6.5778  -6.0463  -5.9968  -5.0795
    -5.0524  -4.9957  -4.9025  -4.8710   3.2916   6.3956   6.6284   6.8960
     7.4957   7.9408   8.7581   9.3207   9.6015   9.7781  13.2074  13.7731
    13.9508  14.9115

          k = 0.3500 0.1500 0.2500 (  5080 PWs)   bands (ev):

   -46.1696 -22.4639 -22.4568 -22.4391  -6.6251  -6.0452  -5.9556  -5.0751
    -5.0495  -4.9951  -4.9017  -4.8818   3.3071   6.4682   6.6628   6.8638
     7.4389   7.9197   8.8796   9.2719   9.5687   9.7776  13.2493  13.7079
    13.9155  14.9023

          k =-0.1500 0.4500 0.2500 (  5077 PWs)   bands (ev):

   -46.1694 -22.5102 -22.4386 -22.4210  -6.5064  -6.0085  -5.9883  -5.0811
    -5.0469  -4.9799  -4.9062  -4.8664   3.1998   6.1254   6.5333   6.8870
     7.4628   8.0282   8.5625   9.3867   9.5322   9.8137  13.1756  14.0024
    14.1459  14.9936

          k = 0.4500 0.1500 0.2500 (  5077 PWs)   bands (ev):

   -46.1694 -22.4673 -22.4634 -22.4387  -6.5709  -6.0185  -5.9210  -5.0752
    -5.0428  -4.9803  -4.9005  -4.8844   3.2202   6.2024   6.5891   6.8471
     7.3952   7.9945   8.6830   9.3353   9.4809   9.8446  13.2165  13.9319
    14.1178  14.9635

          k = 0.3500 0.1500 0.3500 (  5081 PWs)   bands (ev):

   -46.1692 -22.4633 -22.4561 -22.4559  -6.5664  -5.9896  -5.9171  -5.0674
    -5.0408  -4.9758  -4.9052  -4.8350   3.2143   6.4390   6.4622   6.6459
     7.0460   7.8927   8.9195   9.1152   9.3564   9.9935  13.5256  13.7320
    14.0999  15.1822

          k =-0.1500 0.4500 0.3500 (  5079 PWs)   bands (ev):

   -46.1690 -22.5094 -22.4556 -22.4203  -6.4678  -5.9751  -5.9295  -5.0705
    -5.0300  -4.9651  -4.9247  -4.7791   3.1323   6.0821   6.5101   6.5546
     7.0047   7.9614   8.6535   9.1175   9.2382  10.0600  13.5742  13.9647
    14.2837  15.4744

          k = 0.4500 0.1500 0.3500 (  5079 PWs)   bands (ev):

   -46.1690 -22.4665 -22.4628 -22.4555  -6.5454  -5.9428  -5.8864  -5.0640
    -5.0283  -4.9635  -4.9155  -4.8043   3.1520   6.1762   6.4808   6.5570
     6.9395   7.9316   8.7449   9.1138   9.2001  10.1223  13.6015  13.8978
    14.2536  15.4489

          k = 0.4500 0.1500 0.4500 (  5073 PWs)   bands (ev):

   -46.1688 -22.4661 -22.4660 -22.4623  -6.5450  -5.8761  -5.8645  -5.0593
    -5.0054  -4.9513  -4.9375  -4.7564   3.1022   6.0614   6.3849   6.5934
     6.6572   7.9490   8.5458   9.0556   9.0715  10.2939  13.8641  13.8988
    14.3700  15.7603

          k =-0.2500 0.3500 0.2500 (  5072 PWs)   bands (ev):

   -46.1692 -22.4989 -22.4385 -22.4383  -6.4620  -6.0438  -6.0290  -5.0628
    -5.0448  -4.9449  -4.8580  -4.8381   3.3458   6.2469   6.3585   6.6344
     7.3008   7.3456   8.8708   9.5229   9.6031   9.7697  13.2893  13.7984
    13.9361  15.1635

          k =-0.2500 0.4500 0.2500 (  5073 PWs)   bands (ev):

   -46.1690 -22.5094 -22.4381 -22.4379  -6.3943  -6.0378  -6.0143  -5.0604
    -5.0345  -4.9021  -4.8663  -4.8253   3.2973   6.1147   6.1348   6.5401
     7.2679   7.3869   8.6197   9.4912   9.6359   9.8239  13.3296  13.9591
    14.1378  15.4564

          k = 0.3500 0.2500 0.3500 (  5057 PWs)   bands (ev):

   -46.1689 -22.4804 -22.4554 -22.4552  -6.4196  -6.0417  -5.9801  -5.0437
    -5.0301  -4.8956  -4.8252  -4.8040   3.3882   6.1233   6.1568   6.4390
     6.8136   7.2499   8.4940   9.6071   9.6171  10.0002  13.4988  13.8390
    14.0501  15.4919

          k =-0.2500 0.4500 0.3500 (  5063 PWs)   bands (ev):

   -46.1687 -22.5087 -22.4549 -22.4373  -6.3304  -6.0335  -6.0118  -5.0446
    -5.0120  -4.8633  -4.8337  -4.7481   3.3782   5.9305   6.1282   6.2167
     6.7187   7.2869   8.1053   9.5787   9.7100  10.0509  13.6315  13.9576
    14.2192  15.8622

          k = 0.4500 0.2500 0.3500 (  5063 PWs)   bands (ev):

   -46.1687 -22.4799 -22.4658 -22.4549  -6.3988  -6.0276  -5.9525  -5.0383
    -5.0153  -4.8526  -4.8246  -4.7732   3.3955   5.9888   6.1436   6.1723
     6.7093   7.2511   8.1279   9.6140   9.6429  10.1181  13.6607  13.9082
    14.2031  15.8524

          k = 0.4500 0.2500 0.4500 (  5070 PWs)   bands (ev):

   -46.1685 -22.4795 -22.4653 -22.4653  -6.3998  -5.9703  -5.9597  -5.0319
    -4.9980  -4.8209  -4.8111  -4.7269   3.4328   5.9708   6.0064   6.0621
     6.4430   7.2364   7.6914   9.6492   9.6498  10.2850  13.8890  13.9406
    14.3026  16.1873

          k =-0.3500 0.4500 0.3500 (  5056 PWs)   bands (ev):

   -46.1683 -22.5079 -22.4542 -22.4541  -6.2118  -6.0782  -6.0662  -5.0201
    -5.0006  -4.7829  -4.7409  -4.7032   3.6736   5.6227   5.8315   6.0714
     6.6109   6.7527   7.3303   9.9479   9.9901  10.0805  13.8375  14.0588
    14.2153  16.2696

          k = 0.4500 0.3500 0.4500 (  5051 PWs)   bands (ev):

   -46.1681 -22.4965 -22.4646 -22.4646  -6.2526  -6.0481  -6.0374  -5.0042
    -4.9954  -4.7110  -4.6967  -4.6865   3.9016   5.5620   5.5811   5.9840
     6.4388   6.6408   6.7516  10.0239  10.0298  10.2760  14.0495  14.1048
    14.2701  16.6389

     the Fermi energy is    10.4126 ev

!    total energy              =    -364.95710012 Ry
     Harris-Foulkes estimate   =    -364.95710012 Ry
     estimated scf accuracy    <          2.6E-11 Ry

     The total energy is the sum of the following terms:

     one-electron contribution =     -83.11699652 Ry
     hartree contribution      =      70.94188234 Ry
     xc contribution           =     -85.81268199 Ry
     ewald contribution        =    -266.97546917 Ry
     smearing contrib. (-TS)   =       0.00616521 Ry

     convergence has been achieved in   8 iterations

     Forces acting on atoms (cartesian axes, Ry/au):

     atom    1 type  1   force =     0.00000000    0.01122767    0.00000000
     atom    2 type  2   force =     0.00000000   -0.01005639    0.00000000
     atom    3 type  3   force =     0.00000000   -0.00051978    0.00000000
     atom    4 type  3   force =     0.00000000   -0.00013171    0.00000000
     atom    5 type  3   force =     0.00000000   -0.00051978    0.00000000

     Total force =     0.000747     Total SCF correction =     0.000003


     Computing stress (Cartesian axis) and pressure

          total   stress  (Ry/bohr**3)                   (kbar)     P=    7.13
   0.00000653   0.00000000   0.00000000          0.96      0.00      0.00
   0.00000000   0.00013243   0.00000000          0.00     19.48      0.00
   0.00000000   0.00000000   0.00000653          0.00      0.00      0.96


     bfgs converged in   4 scf cycles and   3 bfgs steps
     (criteria: energy <  1.0E-04 Ry, force <  1.0E-03 Ry/Bohr)

     End of BFGS Geometry Optimization

     Final energy   =    -364.9571001243 Ry
Begin final coordinates

ATOMIC_POSITIONS (crystal)
Pb       0.000000000   0.000000000   0.000000000    0   0   0
Ti       0.500000000   0.530000000   0.500000000    0   0   0
O        0.500000000   0.500248705   0.000000000
O        0.500000000  -0.001873174   0.500000000
O        0.000000000   0.500248705   0.500000000
End final coordinates



     Writing output data file PbTiO3.save/
 
     init_run     :      9.64s CPU     10.37s WALL (       1 calls)
     electrons    :    815.12s CPU    856.85s WALL (       4 calls)
     update_pot   :      0.86s CPU      0.91s WALL (       3 calls)
     forces       :     10.10s CPU     12.31s WALL (       4 calls)
     stress       :     44.60s CPU     50.47s WALL (       4 calls)

     Called by init_run:
     wfcinit      :      7.24s CPU      7.33s WALL (       1 calls)
     potinit      :      0.23s CPU      0.26s WALL (       1 calls)
     hinit0       :      1.31s CPU      1.38s WALL (       1 calls)

     Called by electrons:
     c_bands      :    637.90s CPU    642.73s WALL (      38 calls)
     sum_band     :    142.89s CPU    160.59s WALL (      38 calls)
     v_of_rho     :      7.97s CPU      8.45s WALL (      39 calls)
     newd         :     29.32s CPU     49.69s WALL (      39 calls)
     mix_rho      :      0.49s CPU      0.54s WALL (      38 calls)

     Called by c_bands:
     init_us_2    :     19.10s CPU     19.19s WALL (    6375 calls)
     cegterg      :    584.74s CPU    589.28s WALL (    2850 calls)

     Called by sum_band:
     sum_band:bec :      0.05s CPU      0.05s WALL (    2850 calls)
     addusdens    :     33.92s CPU     51.09s WALL (      38 calls)

     Called by *egterg:
     h_psi        :    496.45s CPU    497.62s WALL (   12023 calls)
     s_psi        :     15.59s CPU     15.66s WALL (   12023 calls)
     g_psi        :      5.49s CPU      5.51s WALL (    9098 calls)
     cdiaghg      :     15.85s CPU     18.60s WALL (   11498 calls)

     Called by h_psi:
     h_psi:pot    :    494.47s CPU    495.55s WALL (   12023 calls)
     h_psi:calbec :     15.57s CPU     15.60s WALL (   12023 calls)
     vloc_psi     :    463.10s CPU    464.11s WALL (   12023 calls)
     add_vuspsi   :     15.73s CPU     15.77s WALL (   12023 calls)

     General routines
     calbec       :     23.76s CPU     23.82s WALL (   16373 calls)
     fft          :      2.03s CPU      2.09s WALL (     605 calls)
     ffts         :      0.08s CPU      0.08s WALL (      77 calls)
     fftw         :    502.22s CPU    503.33s WALL (  463170 calls)
     interpolate  :      0.21s CPU      0.24s WALL (      39 calls)
 
     Parallel routines
 
     PWSCF        :  14m43.60s CPU  15m39.53s WALL

 
   This run was terminated on:  14:28:54  13May2020            

=------------------------------------------------------------------------------=
   JOB DONE.
=------------------------------------------------------------------------------=
