
     Program PWSCF v.6.4.1 starts on 13May2020 at 17: 7:22 

     This program is part of the open-source Quantum ESPRESSO suite
     for quantum simulation of materials; please cite
         "P. Giannozzi et al., J. Phys.:Condens. Matter 21 395502 (2009);
         "P. Giannozzi et al., J. Phys.:Condens. Matter 29 465901 (2017);
          URL http://www.quantum-espresso.org", 
     in publications or presentations arising from this work. More details at
     http://www.quantum-espresso.org/quote

     Parallel version (MPI & OpenMP), running on       1 processor cores
     Number of MPI processes:                 1
     Threads/MPI process:                     1

     MPI processes distributed on     1 nodes
     Reading input from PTO_7.49_10_0.55.pw.in
Warning: card  &CELL ignored
Warning: card   CELL_DYNAMICS = 'BFGS', ignored
Warning: card  / ignored

     Current dimensions of program PWSCF are:
     Max number of different atomic species (ntypx) = 10
     Max number of k-points (npk) =  40000
     Max angular momentum in pseudopotentials (lmaxx) =  3
     Message from routine read_upf::
     Pseudo file Pb.pbe-dn-rrkjus_psl.0.2.2.UPF has been fixed on the fly.
To avoid this message in the future, permanently fix 
 your pseudo files following these instructions: 
https://gitlab.com/QEF/q-e/blob/master/upftools/how_to_fix_upf.md
     Message from routine read_upf::
     Pseudo file O.pbe-n-rrkjus_psl.0.1.UPF has been fixed on the fly.
To avoid this message in the future, permanently fix 
 your pseudo files following these instructions: 
https://gitlab.com/QEF/q-e/blob/master/upftools/how_to_fix_upf.md
               file Pb.pbe-dn-rrkjus_psl.0.2.2.UPF: wavefunction(s)  6S renormalized

     Subspace diagonalization in iterative solution of the eigenvalue problem:
     a serial algorithm will be used

 
     G-vector sticks info
     --------------------
     sticks:   dense  smooth     PW     G-vecs:    dense   smooth      PW
     Sum        3569    1433    421               160467    40651    6235
 


     bravais-lattice index     =            1
     lattice parameter (alat)  =       7.4900  a.u.
     unit-cell volume          =     420.1897 (a.u.)^3
     number of atoms/cell      =            5
     number of atomic types    =            3
     number of electrons       =        44.00
     number of Kohn-Sham states=           26
     kinetic-energy cutoff     =      80.0000  Ry
     charge density cutoff     =     800.0000  Ry
     convergence threshold     =      1.0E-08
     mixing beta               =       0.7000
     number of iterations used =            8  plain     mixing
     Exchange-correlation      = PBE ( 1  4  3  4 0 0)
     nstep                     =           50


     celldm(1)=   7.490000  celldm(2)=   0.000000  celldm(3)=   0.000000
     celldm(4)=   0.000000  celldm(5)=   0.000000  celldm(6)=   0.000000

     crystal axes: (cart. coord. in units of alat)
               a(1) = (   1.000000   0.000000   0.000000 )  
               a(2) = (   0.000000   1.000000   0.000000 )  
               a(3) = (   0.000000   0.000000   1.000000 )  

     reciprocal axes: (cart. coord. in units 2 pi/alat)
               b(1) = (  1.000000  0.000000  0.000000 )  
               b(2) = (  0.000000  1.000000  0.000000 )  
               b(3) = (  0.000000  0.000000  1.000000 )  


     PseudoPot. # 1 for Pb read from file:
     ./Pb.pbe-dn-rrkjus_psl.0.2.2.UPF
     MD5 check sum: 7afc420059c37d6888fc09c0f121e83f
     Pseudo is Ultrasoft + core correction, Zval = 14.0
     Generated using "atomic" code by A. Dal Corso v.5.0.2 svn rev. 9415
     Using radial grid of 1281 points,  6 beta functions with: 
                l(1) =   0
                l(2) =   0
                l(3) =   1
                l(4) =   1
                l(5) =   2
                l(6) =   2
     Q(r) pseudized with 0 coefficients 


     PseudoPot. # 2 for Ti read from file:
     ./Ti.pbe-sp-van_ak.UPF
     MD5 check sum: 8e4df49b7f0d34bbd5052bf3f5ea0213
     Pseudo is Ultrasoft, Zval = 12.0
     Generated by new atomic code, or converted to UPF format
     Using radial grid of  851 points,  6 beta functions with: 
                l(1) =   0
                l(2) =   0
                l(3) =   1
                l(4) =   1
                l(5) =   2
                l(6) =   2
     Q(r) pseudized with  8 coefficients,  rinner =    1.000   1.000   1.000
                                                       1.000   1.000

     PseudoPot. # 3 for O  read from file:
     ./O.pbe-n-rrkjus_psl.0.1.UPF
     MD5 check sum: e057bbcf3229fb5d8c36c0c92f9568b4
     Pseudo is Ultrasoft + core correction, Zval =  6.0
     Generated using "atomic" code by A. Dal Corso v.5.0.2 svn rev. 9415
     Using radial grid of 1095 points,  4 beta functions with: 
                l(1) =   0
                l(2) =   0
                l(3) =   1
                l(4) =   1
     Q(r) pseudized with 0 coefficients 


     atomic species   valence    mass     pseudopotential
        Pb            14.00   207.20000     Pb( 1.00)
        Ti            12.00    47.87000     Ti( 1.00)
        O              6.00    16.00000     O ( 1.00)

      8 Sym. Ops. (no inversion) found



   Cartesian axes

     site n.     atom                  positions (alat units)
         1           Pb  tau(   1) = (   0.0000000   0.0000000   0.0000000  )
         2           Ti  tau(   2) = (   0.5000000   0.5500000   0.5000000  )
         3           O   tau(   3) = (   0.5000000   0.5000000   0.0000000  )
         4           O   tau(   4) = (   0.5000000   0.0000000   0.5000000  )
         5           O   tau(   5) = (   0.0000000   0.5000000   0.5000000  )

     number of k points=    75  Marzari-Vanderbilt smearing, width (Ry)=  0.0250
                       cart. coord. in units 2pi/alat
        k(    1) = (   0.0500000   0.0500000   0.0500000), wk =   0.0160000
        k(    2) = (   0.0500000   0.0500000   0.1500000), wk =   0.0320000
        k(    3) = (   0.0500000   0.0500000   0.2500000), wk =   0.0320000
        k(    4) = (   0.0500000   0.0500000   0.3500000), wk =   0.0320000
        k(    5) = (   0.0500000   0.0500000   0.4500000), wk =   0.0320000
        k(    6) = (   0.0500000   0.1500000   0.1500000), wk =   0.0320000
        k(    7) = (   0.0500000   0.1500000   0.2500000), wk =   0.0320000
        k(    8) = (   0.0500000   0.1500000   0.3500000), wk =   0.0320000
        k(    9) = (   0.0500000   0.1500000   0.4500000), wk =   0.0320000
        k(   10) = (   0.0500000   0.2500000   0.2500000), wk =   0.0320000
        k(   11) = (   0.0500000   0.2500000   0.3500000), wk =   0.0320000
        k(   12) = (   0.0500000   0.2500000   0.4500000), wk =   0.0320000
        k(   13) = (   0.0500000   0.3500000   0.3500000), wk =   0.0320000
        k(   14) = (   0.0500000   0.3500000   0.4500000), wk =   0.0320000
        k(   15) = (   0.0500000   0.4500000   0.4500000), wk =   0.0320000
        k(   16) = (   0.1500000   0.1500000   0.1500000), wk =   0.0160000
        k(   17) = (   0.1500000   0.1500000   0.2500000), wk =   0.0320000
        k(   18) = (   0.1500000   0.1500000   0.3500000), wk =   0.0320000
        k(   19) = (   0.1500000   0.1500000   0.4500000), wk =   0.0320000
        k(   20) = (   0.1500000   0.2500000   0.2500000), wk =   0.0320000
        k(   21) = (   0.1500000   0.2500000   0.3500000), wk =   0.0320000
        k(   22) = (   0.1500000   0.2500000   0.4500000), wk =   0.0320000
        k(   23) = (   0.1500000   0.3500000   0.3500000), wk =   0.0320000
        k(   24) = (   0.1500000   0.3500000   0.4500000), wk =   0.0320000
        k(   25) = (   0.1500000   0.4500000   0.4500000), wk =   0.0320000
        k(   26) = (   0.2500000   0.2500000   0.2500000), wk =   0.0160000
        k(   27) = (   0.2500000   0.2500000   0.3500000), wk =   0.0320000
        k(   28) = (   0.2500000   0.2500000   0.4500000), wk =   0.0320000
        k(   29) = (   0.2500000   0.3500000   0.3500000), wk =   0.0320000
        k(   30) = (   0.2500000   0.3500000   0.4500000), wk =   0.0320000
        k(   31) = (   0.2500000   0.4500000   0.4500000), wk =   0.0320000
        k(   32) = (   0.3500000   0.3500000   0.3500000), wk =   0.0160000
        k(   33) = (   0.3500000   0.3500000   0.4500000), wk =   0.0320000
        k(   34) = (   0.3500000   0.4500000   0.4500000), wk =   0.0320000
        k(   35) = (   0.4500000   0.4500000   0.4500000), wk =   0.0160000
        k(   36) = (  -0.0500000   0.1500000   0.0500000), wk =   0.0160000
        k(   37) = (  -0.0500000   0.2500000   0.0500000), wk =   0.0160000
        k(   38) = (  -0.0500000   0.3500000   0.0500000), wk =   0.0160000
        k(   39) = (  -0.0500000   0.4500000   0.0500000), wk =   0.0160000
        k(   40) = (   0.1500000   0.0500000   0.1500000), wk =   0.0160000
        k(   41) = (  -0.0500000   0.2500000   0.1500000), wk =   0.0320000
        k(   42) = (   0.2500000   0.0500000   0.1500000), wk =   0.0320000
        k(   43) = (  -0.0500000   0.3500000   0.1500000), wk =   0.0320000
        k(   44) = (   0.3500000   0.0500000   0.1500000), wk =   0.0320000
        k(   45) = (  -0.0500000   0.4500000   0.1500000), wk =   0.0320000
        k(   46) = (   0.4500000   0.0500000   0.1500000), wk =   0.0320000
        k(   47) = (   0.2500000   0.0500000   0.2500000), wk =   0.0160000
        k(   48) = (  -0.0500000   0.3500000   0.2500000), wk =   0.0320000
        k(   49) = (   0.3500000   0.0500000   0.2500000), wk =   0.0320000
        k(   50) = (  -0.0500000   0.4500000   0.2500000), wk =   0.0320000
        k(   51) = (   0.4500000   0.0500000   0.2500000), wk =   0.0320000
        k(   52) = (   0.3500000   0.0500000   0.3500000), wk =   0.0160000
        k(   53) = (  -0.0500000   0.4500000   0.3500000), wk =   0.0320000
        k(   54) = (   0.4500000   0.0500000   0.3500000), wk =   0.0320000
        k(   55) = (   0.4500000   0.0500000   0.4500000), wk =   0.0160000
        k(   56) = (  -0.1500000   0.2500000   0.1500000), wk =   0.0160000
        k(   57) = (  -0.1500000   0.3500000   0.1500000), wk =   0.0160000
        k(   58) = (  -0.1500000   0.4500000   0.1500000), wk =   0.0160000
        k(   59) = (   0.2500000   0.1500000   0.2500000), wk =   0.0160000
        k(   60) = (  -0.1500000   0.3500000   0.2500000), wk =   0.0320000
        k(   61) = (   0.3500000   0.1500000   0.2500000), wk =   0.0320000
        k(   62) = (  -0.1500000   0.4500000   0.2500000), wk =   0.0320000
        k(   63) = (   0.4500000   0.1500000   0.2500000), wk =   0.0320000
        k(   64) = (   0.3500000   0.1500000   0.3500000), wk =   0.0160000
        k(   65) = (  -0.1500000   0.4500000   0.3500000), wk =   0.0320000
        k(   66) = (   0.4500000   0.1500000   0.3500000), wk =   0.0320000
        k(   67) = (   0.4500000   0.1500000   0.4500000), wk =   0.0160000
        k(   68) = (  -0.2500000   0.3500000   0.2500000), wk =   0.0160000
        k(   69) = (  -0.2500000   0.4500000   0.2500000), wk =   0.0160000
        k(   70) = (   0.3500000   0.2500000   0.3500000), wk =   0.0160000
        k(   71) = (  -0.2500000   0.4500000   0.3500000), wk =   0.0320000
        k(   72) = (   0.4500000   0.2500000   0.3500000), wk =   0.0320000
        k(   73) = (   0.4500000   0.2500000   0.4500000), wk =   0.0160000
        k(   74) = (  -0.3500000   0.4500000   0.3500000), wk =   0.0160000
        k(   75) = (   0.4500000   0.3500000   0.4500000), wk =   0.0160000

     Dense  grid:   160467 G-vectors     FFT dimensions: (  72,  72,  72)

     Smooth grid:    40651 G-vectors     FFT dimensions: (  45,  45,  45)

     Estimated max dynamical RAM per process >     759.22 MB

     Check: negative core charge=   -0.000006

     Initial potential from superposition of free atoms

     starting charge   42.99760, renormalised to   44.00000
     Starting wfcs are   31 randomized atomic wfcs

     total cpu time spent up to now is       11.3 secs

     Self-consistent Calculation

     iteration #  1     ecut=    80.00 Ry     beta= 0.70
     Davidson diagonalization with overlap
     ethr =  1.00E-02,  avg # of iterations =  2.0

     total cpu time spent up to now is       31.1 secs

     total energy              =    -364.40427667 Ry
     Harris-Foulkes estimate   =    -365.28672971 Ry
     estimated scf accuracy    <       1.10818771 Ry

     iteration #  2     ecut=    80.00 Ry     beta= 0.70
     Davidson diagonalization with overlap
     ethr =  2.52E-03,  avg # of iterations =  4.1

     total cpu time spent up to now is       58.3 secs

     total energy              =    -363.41886796 Ry
     Harris-Foulkes estimate   =    -365.73604235 Ry
     estimated scf accuracy    <       8.36726662 Ry

     iteration #  3     ecut=    80.00 Ry     beta= 0.70
     Davidson diagonalization with overlap
     ethr =  2.52E-03,  avg # of iterations =  4.9

     total cpu time spent up to now is       85.9 secs

     total energy              =    -364.92881041 Ry
     Harris-Foulkes estimate   =    -365.09524977 Ry
     estimated scf accuracy    <       0.45272994 Ry

     iteration #  4     ecut=    80.00 Ry     beta= 0.70
     Davidson diagonalization with overlap
     ethr =  1.03E-03,  avg # of iterations =  3.0

     total cpu time spent up to now is      105.5 secs

     total energy              =    -364.91507291 Ry
     Harris-Foulkes estimate   =    -364.96211810 Ry
     estimated scf accuracy    <       0.15880920 Ry

     iteration #  5     ecut=    80.00 Ry     beta= 0.70
     Davidson diagonalization with overlap
     ethr =  3.61E-04,  avg # of iterations =  4.4

     total cpu time spent up to now is      129.6 secs

     total energy              =    -364.95312488 Ry
     Harris-Foulkes estimate   =    -364.95331315 Ry
     estimated scf accuracy    <       0.00151649 Ry

     iteration #  6     ecut=    80.00 Ry     beta= 0.70
     Davidson diagonalization with overlap
     ethr =  3.45E-06,  avg # of iterations =  4.3

     total cpu time spent up to now is      157.2 secs

     total energy              =    -364.95338016 Ry
     Harris-Foulkes estimate   =    -364.95386082 Ry
     estimated scf accuracy    <       0.00223984 Ry

     iteration #  7     ecut=    80.00 Ry     beta= 0.70
     Davidson diagonalization with overlap
     ethr =  3.45E-06,  avg # of iterations =  2.5

     total cpu time spent up to now is      176.9 secs

     total energy              =    -364.95331029 Ry
     Harris-Foulkes estimate   =    -364.95358314 Ry
     estimated scf accuracy    <       0.00071835 Ry

     iteration #  8     ecut=    80.00 Ry     beta= 0.70
     Davidson diagonalization with overlap
     ethr =  1.63E-06,  avg # of iterations =  3.6

     total cpu time spent up to now is      197.8 secs

     total energy              =    -364.95345618 Ry
     Harris-Foulkes estimate   =    -364.95346224 Ry
     estimated scf accuracy    <       0.00003215 Ry

     iteration #  9     ecut=    80.00 Ry     beta= 0.70
     Davidson diagonalization with overlap
     ethr =  7.31E-08,  avg # of iterations =  2.9

     total cpu time spent up to now is      221.0 secs

     total energy              =    -364.95345658 Ry
     Harris-Foulkes estimate   =    -364.95346624 Ry
     estimated scf accuracy    <       0.00002923 Ry

     iteration # 10     ecut=    80.00 Ry     beta= 0.70
     Davidson diagonalization with overlap
     ethr =  6.64E-08,  avg # of iterations =  1.7

     total cpu time spent up to now is      239.6 secs

     total energy              =    -364.95345763 Ry
     Harris-Foulkes estimate   =    -364.95345897 Ry
     estimated scf accuracy    <       0.00000309 Ry

     iteration # 11     ecut=    80.00 Ry     beta= 0.70
     Davidson diagonalization with overlap
     ethr =  7.03E-09,  avg # of iterations =  3.1

     total cpu time spent up to now is      264.7 secs

     total energy              =    -364.95345915 Ry
     Harris-Foulkes estimate   =    -364.95345933 Ry
     estimated scf accuracy    <       0.00000073 Ry

     iteration # 12     ecut=    80.00 Ry     beta= 0.70
     Davidson diagonalization with overlap
     ethr =  1.65E-09,  avg # of iterations =  1.0

     total cpu time spent up to now is      282.9 secs

     total energy              =    -364.95345914 Ry
     Harris-Foulkes estimate   =    -364.95345919 Ry
     estimated scf accuracy    <       0.00000016 Ry

     iteration # 13     ecut=    80.00 Ry     beta= 0.70
     Davidson diagonalization with overlap
     ethr =  3.67E-10,  avg # of iterations =  3.0

     total cpu time spent up to now is      304.7 secs

     End of self-consistent calculation

          k = 0.0500 0.0500 0.0500 (  5047 PWs)   bands (ev):

   -46.0429 -22.4022 -22.2861 -22.2861  -7.2259  -6.2458  -6.1187  -5.0692
    -5.0494  -5.0491  -4.9125  -4.8946   4.4502   6.8123   6.8627   7.0079
     8.7076   8.7330   9.1622   9.2341   9.5090   9.5363  12.5275  13.0474
    13.0582  14.7415

          k = 0.0500 0.0500 0.1500 (  5074 PWs)   bands (ev):

   -46.0427 -22.4018 -22.2968 -22.2857  -7.1460  -6.2110  -6.0892  -5.0768
    -5.0572  -5.0487  -4.9424  -4.8941   4.1544   6.8686   6.9494   7.1810
     8.5063   8.6896   9.0894   9.1660   9.3743   9.5071  12.8433  13.0574
    13.1244  14.9572

          k = 0.0500 0.0500 0.2500 (  5093 PWs)   bands (ev):

   -46.0423 -22.4011 -22.3139 -22.2851  -7.0129  -6.1492  -6.0424  -5.0894
    -5.0701  -5.0479  -4.9988  -4.8896   3.7858   6.8846   7.0521   7.2066
     8.4117   8.5115   8.9949   9.0873   9.2900   9.5696  13.0579  13.3034
    13.4300  14.9579

          k = 0.0500 0.0500 0.3500 (  5090 PWs)   bands (ev):

   -46.0420 -22.4005 -22.3310 -22.2845  -6.8745  -6.0765  -5.9998  -5.1072
    -5.0859  -5.0535  -5.0470  -4.8869   3.4966   6.5460   7.2334   7.3699
     8.1642   8.2855   8.9234   9.0008   9.3804   9.9414  13.0584  13.7187
    13.8214  14.2496

          k = 0.0500 0.0500 0.4500 (  5073 PWs)   bands (ev):

   -46.0418 -22.4001 -22.3415 -22.2841  -6.7858  -6.0176  -5.9831  -5.1336
    -5.0978  -5.0738  -5.0465  -4.8865   3.3458   6.2732   7.4236   7.6200
     7.8864   7.9961   8.9113   8.9679   9.4328  10.3804  13.0387  13.5421
    13.9643  14.0956

          k = 0.0500 0.1500 0.1500 (  5079 PWs)   bands (ev):

   -46.0425 -22.4127 -22.2963 -22.2853  -7.0516  -6.1907  -6.0612  -5.0768
    -5.0682  -5.0556  -4.9335  -4.9155   3.9316   6.8248   6.9257   7.3510
     8.2938   8.5189   8.9338   9.2188   9.3382   9.6041  12.8433  13.2978
    13.3509  15.0518

          k = 0.0500 0.1500 0.2500 (  5077 PWs)   bands (ev):

   -46.0421 -22.4120 -22.3134 -22.2847  -6.9228  -6.1369  -6.0219  -5.0926
    -5.0786  -5.0551  -4.9651  -4.9060   3.6371   6.7849   7.0469   7.2876
     8.1649   8.3703   8.8133   9.0717   9.2646   9.7577  13.2644  13.3356
    13.6007  15.0792

          k = 0.0500 0.1500 0.3500 (  5080 PWs)   bands (ev):

   -46.0418 -22.4113 -22.3305 -22.2841  -6.7909  -6.0814  -5.9790  -5.1112
    -5.0886  -5.0547  -4.9916  -4.9027   3.3900   6.5272   7.1626   7.3353
     7.9351   8.2264   8.7601   9.0419   9.2442   9.9981  13.2917  13.7118
    13.9395  14.4168

          k = 0.0500 0.1500 0.4500 (  5079 PWs)   bands (ev):

   -46.0415 -22.4109 -22.3409 -22.2837  -6.7078  -6.0463  -5.9497  -5.1258
    -5.0975  -5.0544  -5.0001  -4.9054   3.2564   6.2754   7.2770   7.4998
     7.7589   7.9813   8.7815   9.1107   9.2129  10.1924  13.2697  13.9236
    13.9620  14.1843

          k = 0.0500 0.2500 0.2500 (  5076 PWs)   bands (ev):

   -46.0418 -22.4296 -22.3127 -22.2840  -6.7748  -6.1209  -5.9791  -5.0966
    -5.0834  -5.0628  -4.9412  -4.9186   3.4114   6.6406   7.0564   7.1910
     7.9514   8.1063   8.5825   9.0708   9.4363   9.9116  13.2825  13.6810
    13.8715  15.0104

          k = 0.0500 0.2500 0.3500 (  5080 PWs)   bands (ev):

   -46.0414 -22.4288 -22.3296 -22.2834  -6.6629  -6.0867  -5.9264  -5.1066
    -5.0876  -5.0641  -4.9512  -4.8968   3.2207   6.4782   6.9502   7.2570
     7.7382   8.0843   8.4985   8.8715   9.5420   9.9178  13.6340  13.7226
    14.1219  14.7169

          k = 0.0500 0.2500 0.4500 (  5084 PWs)   bands (ev):

   -46.0412 -22.4283 -22.3401 -22.2830  -6.5981  -6.0653  -5.8846  -5.1125
    -5.0959  -5.0652  -4.9441  -4.8930   3.1126   6.2676   6.9690   7.2683
     7.6291   8.0960   8.4462   8.8516   9.5635   9.8790  13.6519  13.9291
    14.3160  14.5277

          k = 0.0500 0.3500 0.3500 (  5079 PWs)   bands (ev):

   -46.0411 -22.4461 -22.3288 -22.2827  -6.5567  -6.0595  -5.8662  -5.1056
    -5.0904  -5.0670  -4.9741  -4.8379   3.0569   6.2777   6.7061   7.2368
     7.6604   7.9422   8.3785   8.8346   9.5317   9.9484  13.6644  14.0413
    14.3091  15.0406

          k = 0.0500 0.3500 0.4500 (  5079 PWs)   bands (ev):

   -46.0409 -22.4456 -22.3392 -22.2823  -6.5264  -6.0283  -5.8121  -5.1064
    -5.0945  -5.0699  -4.9819  -4.8032   2.9706   6.1785   6.5570   7.3222
     7.4616   8.1233   8.2972   8.7029   9.3447  10.0078  13.8968  14.0363
    14.4725  15.0880

          k = 0.0500 0.4500 0.4500 (  5100 PWs)   bands (ev):

   -46.0406 -22.4563 -22.3387 -22.2819  -6.5063  -5.9726  -5.7627  -5.1092
    -5.0940  -5.0702  -5.0063  -4.7514   2.8843   5.9815   6.4511   7.2852
     7.4651   8.0467   8.3545   8.6456   9.0296  10.1831  13.8772  14.2696
    14.5790  15.4609

          k = 0.1500 0.1500 0.1500 (  5095 PWs)   bands (ev):

   -46.0422 -22.4123 -22.2961 -22.2958  -6.9772  -6.1650  -6.0383  -5.0849
    -5.0736  -5.0555  -4.9315  -4.9157   3.7839   6.7897   6.8519   7.4575
     8.1516   8.3142   8.8820   9.2848   9.4472   9.4785  13.0661  13.3271
    13.3683  15.5322

          k = 0.1500 0.1500 0.2500 (  5084 PWs)   bands (ev):

   -46.0419 -22.4116 -22.3130 -22.2953  -6.8571  -6.1210  -5.9995  -5.0985
    -5.0754  -5.0521  -4.9479  -4.9061   3.5594   6.7388   6.8413   7.3079
     7.9467   8.1349   8.9256   9.2094   9.3740   9.6700  13.2852  13.4459
    13.5960  15.1361

          k = 0.1500 0.1500 0.3500 (  5082 PWs)   bands (ev):

   -46.0416 -22.4109 -22.3300 -22.2946  -6.7386  -6.0734  -5.9571  -5.1107
    -5.0681  -5.0467  -4.9711  -4.9027   3.3550   6.5250   6.8457   7.1864
     7.7565   8.1776   8.7159   9.2313   9.3826   9.8759  13.2322  13.7607
    13.9301  14.6312

          k = 0.1500 0.1500 0.4500 (  5084 PWs)   bands (ev):

   -46.0413 -22.4105 -22.3404 -22.2942  -6.6672  -6.0423  -5.9276  -5.1155
    -5.0621  -5.0408  -4.9868  -4.9066   3.2395   6.2811   6.8446   7.2261
     7.6683   8.2882   8.4704   9.3080   9.3638   9.9798  13.1651  13.9739
    14.1669  14.3884

          k = 0.1500 0.2500 0.2500 (  5081 PWs)   bands (ev):

   -46.0415 -22.4291 -22.3122 -22.2946  -6.7068  -6.1108  -5.9815  -5.1007
    -5.0853  -5.0388  -4.9228  -4.9008   3.4051   6.5798   6.7032   7.1361
     7.6773   7.9665   8.8364   9.2731   9.4838   9.7651  13.3150  13.6553
    13.8259  14.9482

          k = 0.1500 0.2500 0.3500 (  5080 PWs)   bands (ev):

   -46.0412 -22.4283 -22.3292 -22.2939  -6.6011  -6.0925  -5.9351  -5.1035
    -5.0742  -5.0297  -4.9248  -4.8811   3.2654   6.4483   6.6657   6.9035
     7.3755   8.0162   8.9067   9.0705   9.5475   9.7628  13.4610  13.7487
    14.0645  14.9057

          k = 0.1500 0.2500 0.4500 (  5077 PWs)   bands (ev):

   -46.0410 -22.4279 -22.3396 -22.2935  -6.5414  -6.0851  -5.8944  -5.1020
    -5.0639  -5.0283  -4.9176  -4.8796   3.1804   6.2658   6.6382   6.8220
     7.2818   8.1141   8.7366   9.1477   9.4846   9.7360  13.4821  13.9159
    14.2622  14.9299

          k = 0.1500 0.3500 0.3500 (  5081 PWs)   bands (ev):

   -46.0409 -22.4457 -22.3284 -22.2932  -6.4819  -6.0849  -5.9106  -5.1005
    -5.0677  -5.0083  -4.9321  -4.8223   3.1614   6.2389   6.5788   6.6707
     7.0975   7.9878   8.7474   9.1166   9.3998   9.8932  13.5772  13.9414
    14.2287  15.2132

          k = 0.1500 0.3500 0.4500 (  5079 PWs)   bands (ev):

   -46.0406 -22.4452 -22.3388 -22.2928  -6.4509  -6.0761  -5.8612  -5.0960
    -5.0480  -5.0142  -4.9334  -4.7878   3.1050   6.1602   6.4770   6.6377
     6.8854   8.0619   8.7147   9.0027   9.1914   9.9937  13.8234  13.9266
    14.3788  15.4268

          k = 0.1500 0.4500 0.4500 (  5073 PWs)   bands (ev):

   -46.0404 -22.4558 -22.3382 -22.2924  -6.4251  -6.0331  -5.8415  -5.0936
    -5.0297  -4.9967  -4.9575  -4.7347   3.0514   5.9595   6.4017   6.6207
     6.7635   8.0633   8.4573   8.9072   9.1439  10.1612  13.8674  14.1391
    14.4753  15.7641

          k = 0.2500 0.2500 0.2500 (  5070 PWs)   bands (ev):

   -46.0412 -22.4284 -22.3117 -22.3114  -6.6057  -6.0917  -5.9768  -5.0900
    -5.0852  -5.0081  -4.9000  -4.8743   3.3766   6.3929   6.4890   6.9754
     7.4626   7.5505   9.0169   9.5085   9.5146   9.6509  13.3144  13.7929
    13.8021  14.9812

          k = 0.2500 0.2500 0.3500 (  5072 PWs)   bands (ev):

   -46.0409 -22.4276 -22.3284 -22.3108  -6.5217  -6.0769  -5.9476  -5.0840
    -5.0688  -4.9724  -4.8828  -4.8559   3.3263   6.2657   6.3417   6.6611
     7.1867   7.5158   8.9029   9.4292   9.5439   9.7959  13.3952  13.8402
    14.0498  15.1808

          k = 0.2500 0.2500 0.4500 (  5073 PWs)   bands (ev):

   -46.0406 -22.4272 -22.3388 -22.3104  -6.4806  -6.0740  -5.9107  -5.0796
    -5.0566  -4.9386  -4.8766  -4.8527   3.2863   6.1765   6.2623   6.4362
     7.1168   7.5569   8.6851   9.4526   9.4973   9.8540  13.5173  13.9125
    14.2444  15.4190

          k = 0.2500 0.3500 0.3500 (  5057 PWs)   bands (ev):

   -46.0405 -22.4449 -22.3277 -22.3101  -6.3761  -6.1057  -5.9708  -5.0772
    -5.0499  -4.9328  -4.8562  -4.7926   3.3426   6.0122   6.1791   6.4392
     6.8824   7.4015   8.4474   9.5022   9.7153   9.8832  13.5452  13.9850
    14.1808  15.5139

          k = 0.2500 0.3500 0.4500 (  5063 PWs)   bands (ev):

   -46.0403 -22.4445 -22.3380 -22.3097  -6.3469  -6.1208  -5.9288  -5.0702
    -5.0331  -4.9082  -4.8436  -4.7587   3.3543   6.0068   6.0549   6.2499
     6.6889   7.4298   8.0954   9.5173   9.7046   9.9960  13.7989  13.9615
    14.3245  15.8477

          k = 0.2500 0.4500 0.4500 (  5070 PWs)   bands (ev):

   -46.0401 -22.4551 -22.3375 -22.3093  -6.2946  -6.1131  -5.9404  -5.0661
    -5.0149  -4.8879  -4.8254  -4.7031   3.3810   5.8155   6.0739   6.1238
     6.5080   7.4023   7.6347   9.5125   9.7511  10.1413  13.9317  14.1087
    14.4129  16.1819

          k = 0.3500 0.3500 0.3500 (  5055 PWs)   bands (ev):

   -46.0402 -22.4442 -22.3270 -22.3269  -6.3175  -6.0877  -6.0081  -5.0529
    -5.0378  -4.8602  -4.7867  -4.7557   3.5369   5.7534   5.8691   6.2957
     6.8316   6.9001   7.8173   9.7752   9.8771  10.0322  13.7139  14.1546
    14.1567  15.8812

          k = 0.3500 0.3500 0.4500 (  5056 PWs)   bands (ev):

   -46.0400 -22.4437 -22.3373 -22.3265  -6.3111  -6.0860  -5.9866  -5.0424
    -5.0269  -4.8100  -4.7573  -4.7245   3.6596   5.6619   5.7138   6.1363
     6.6587   6.8803   7.3334   9.8312   9.9511  10.1485  13.9508  14.1057
    14.3144  16.2562

          k = 0.3500 0.4500 0.4500 (  5051 PWs)   bands (ev):

   -46.0397 -22.4544 -22.3368 -22.3261  -6.2041  -6.1403  -6.0199  -5.0390
    -5.0107  -4.7830  -4.7085  -4.6647   3.8513   5.4903   5.6612   5.9757
     6.4717   6.7065   6.8527   9.9250  10.1193  10.1480  14.1079  14.2252
    14.3850  16.6164

          k = 0.4500 0.4500 0.4500 (  5034 PWs)   bands (ev):

   -46.0395 -22.4539 -22.3364 -22.3364  -6.2308  -6.0740  -6.0595  -5.0239
    -5.0069  -4.7208  -4.6428  -4.6366   4.3485   5.3140   5.4052   5.8886
     5.9478   6.4545   6.5889  10.1098  10.1233  10.3119  14.2844  14.3606
    14.3641  16.9694

          k =-0.0500 0.1500 0.0500 (  5074 PWs)   bands (ev):

   -46.0427 -22.4131 -22.2857 -22.2857  -7.1296  -6.2229  -6.0844  -5.0686
    -5.0584  -5.0558  -4.9305  -4.9083   4.1459   6.8576   6.8594   7.1923
     8.5329   8.5544   9.0911   9.1476   9.5419   9.5656  12.5293  13.2879
    13.3076  14.7441

          k =-0.0500 0.2500 0.0500 (  5093 PWs)   bands (ev):

   -46.0423 -22.4308 -22.2851 -22.2850  -6.9647  -6.1904  -6.0237  -5.0755
    -5.0679  -5.0655  -4.9916  -4.9034   3.7612   6.8254   6.9331   7.1135
     8.2982   8.3142   9.0971   9.2173   9.6163   9.6783  12.5320  13.6622
    13.6904  14.7489

          k =-0.0500 0.3500 0.0500 (  5090 PWs)   bands (ev):

   -46.0420 -22.4483 -22.2844 -22.2844  -6.7835  -6.1679  -5.9538  -5.1058
    -5.0742  -5.0667  -5.0483  -4.9009   3.4542   6.4535   7.0123   7.1497
     8.0901   8.0940   9.0359   9.4598   9.6704  10.0560  12.5336  14.0239
    14.0578  14.3462

          k =-0.0500 0.4500 0.0500 (  5073 PWs)   bands (ev):

   -46.0418 -22.4591 -22.2840 -22.2840  -6.6577  -6.1643  -5.9039  -5.1444
    -5.0788  -5.0703  -5.0662  -4.9007   3.2918   6.1498   7.0644   7.2306
     7.9419   7.9762   8.9963   9.5524   9.7059  10.5132  12.5317  13.6039
    14.2417  14.2847

          k = 0.1500 0.0500 0.1500 (  5079 PWs)   bands (ev):

   -46.0425 -22.4014 -22.2965 -22.2962  -7.0708  -6.1820  -6.0581  -5.0843
    -5.0576  -5.0551  -4.9436  -4.9079   3.9426   6.8196   7.0164   7.3274
     8.3230   8.4867   8.9528   9.2059   9.4103   9.5146  13.0508  13.1331
    13.1530  15.3140

          k =-0.0500 0.2500 0.1500 (  5077 PWs)   bands (ev):

   -46.0421 -22.4303 -22.2956 -22.2847  -6.8915  -6.1616  -6.0118  -5.0883
    -5.0754  -5.0634  -4.9573  -4.9182   3.6214   6.7184   6.9692   7.2697
     8.0490   8.3006   8.8483   9.2506   9.4010   9.8109  12.8412  13.6629
    13.7098  15.0691

          k = 0.2500 0.0500 0.1500 (  5077 PWs)   bands (ev):

   -46.0421 -22.4007 -22.3135 -22.2957  -6.9483  -6.1285  -6.0084  -5.0946
    -5.0669  -5.0552  -4.9742  -4.9083   3.6493   6.8095   7.0599   7.2898
     8.1371   8.2390   8.9007   9.1874   9.3968   9.6359  13.1086  13.4052
    13.4922  15.3003

          k =-0.0500 0.3500 0.1500 (  5080 PWs)   bands (ev):

   -46.0418 -22.4478 -22.2949 -22.2840  -6.7194  -6.1391  -5.9564  -5.1138
    -5.0750  -5.0695  -4.9878  -4.9153   3.3568   6.4044   6.9670   7.2572
     7.8584   8.1117   8.9414   9.2401   9.4661  10.1124  12.8331  14.0086
    14.0603  14.5293

          k = 0.3500 0.0500 0.1500 (  5080 PWs)   bands (ev):

   -46.0418 -22.4001 -22.3305 -22.2950  -6.8261  -6.0605  -5.9631  -5.1092
    -5.0725  -5.0547  -5.0133  -4.9054   3.4016   6.5483   7.0838   7.3924
     7.8949   8.2302   8.6108   9.2326   9.4197   9.9471  13.0862  13.7790
    13.8642  14.4732

          k =-0.0500 0.4500 0.1500 (  5079 PWs)   bands (ev):

   -46.0415 -22.4586 -22.2945 -22.2836  -6.6040  -6.1305  -5.9187  -5.1365
    -5.0757  -5.0736  -4.9980  -4.9182   3.2116   6.1218   6.9634   7.3404
     7.7390   7.9884   9.0419   9.2183   9.5067  10.3465  12.8190  13.9928
    14.2475  14.2995

          k = 0.4500 0.0500 0.1500 (  5079 PWs)   bands (ev):

   -46.0416 -22.3996 -22.3410 -22.2946  -6.7516  -6.0013  -5.9451  -5.1244
    -5.0758  -5.0544  -5.0324  -4.9064   3.2673   6.2815   7.1874   7.4746
     7.8446   8.0651   8.4973   9.2209   9.4555  10.2209  13.0369  13.9756
    14.0246  14.1178

          k = 0.2500 0.0500 0.2500 (  5076 PWs)   bands (ev):

   -46.0418 -22.4001 -22.3130 -22.3125  -6.8501  -6.0819  -5.9530  -5.0936
    -5.0691  -5.0610  -4.9481  -4.9358   3.4408   6.7646   6.9983   7.2837
     7.8105   7.9595   8.9614   9.0269   9.6029   9.6885  13.3280  13.4654
    13.7489  15.1077

          k =-0.0500 0.3500 0.2500 (  5080 PWs)   bands (ev):

   -46.0414 -22.4470 -22.3119 -22.2834  -6.6274  -6.0991  -5.9298  -5.1080
    -5.0855  -5.0674  -4.9537  -4.8989   3.2033   6.3428   6.9684   7.1637
     7.7720   8.0266   8.4826   9.1207   9.4970  10.0241  13.2681  14.0423
    14.1299  14.8147

          k = 0.3500 0.0500 0.2500 (  5080 PWs)   bands (ev):

   -46.0414 -22.3994 -22.3297 -22.3120  -6.7633  -6.0105  -5.9004  -5.0984
    -5.0712  -5.0623  -4.9601  -4.9291   3.2487   6.5533   6.8959   7.2653
     7.6554   7.9461   8.6311   9.1218   9.6124   9.8866  13.3498  13.7880
    14.0229  14.7775

          k =-0.0500 0.4500 0.2500 (  5084 PWs)   bands (ev):

   -46.0412 -22.4577 -22.3114 -22.2829  -6.5403  -6.0749  -5.8989  -5.1214
    -5.0849  -5.0735  -4.9527  -4.8914   3.0836   6.0757   6.9395   7.1544
     7.7116   7.9738   8.5045   9.1647   9.4704  10.0740  13.2560  14.2550
    14.2856  14.7062

          k = 0.4500 0.0500 0.2500 (  5084 PWs)   bands (ev):

   -46.0412 -22.3990 -22.3401 -22.3116  -6.7170  -5.9425  -5.8781  -5.1074
    -5.0735  -5.0655  -4.9524  -4.9342   3.1385   6.2876   6.9824   7.1282
     7.6995   8.0725   8.3107   9.2073   9.5439  10.0197  13.3254  14.0393
    14.2121  14.5689

          k = 0.3500 0.0500 0.3500 (  5079 PWs)   bands (ev):

   -46.0411 -22.3987 -22.3291 -22.3288  -6.7216  -5.9253  -5.8362  -5.0925
    -5.0762  -5.0606  -4.9767  -4.8906   3.0991   6.4815   6.6440   7.2066
     7.3698   7.9882   8.6515   8.8675   9.5726  10.0182  13.6757  13.8293
    14.2066  15.0321

          k =-0.0500 0.4500 0.3500 (  5079 PWs)   bands (ev):

   -46.0409 -22.4568 -22.3283 -22.2823  -6.5102  -6.0145  -5.8277  -5.1113
    -5.0915  -5.0712  -4.9860  -4.8019   2.9590   6.0275   6.6687   7.1673
     7.6756   7.9142   8.3286   8.8553   9.3279  10.0652  13.6538  14.2707
    14.4426  15.2508

          k = 0.4500 0.0500 0.3500 (  5079 PWs)   bands (ev):

   -46.0409 -22.3983 -22.3393 -22.3284  -6.7055  -5.8465  -5.8039  -5.0952
    -5.0745  -5.0679  -4.9881  -4.8614   3.0091   6.2462   6.6584   7.0748
     7.3388   8.1595   8.4148   8.8813   9.3969  10.1675  13.7320  14.0362
    14.3393  15.1160

          k = 0.4500 0.0500 0.4500 (  5100 PWs)   bands (ev):

   -46.0407 -22.3979 -22.3388 -22.3388  -6.7071  -5.7691  -5.7557  -5.0939
    -5.0723  -5.0676  -5.0171  -4.8157   2.9294   6.1247   6.5455   7.1004
     7.1188   8.3110   8.4795   8.6279   9.1634  10.3401  14.0139  14.0434
    14.4196  15.4037

          k =-0.1500 0.2500 0.1500 (  5084 PWs)   bands (ev):

   -46.0419 -22.4299 -22.2953 -22.2951  -6.8197  -6.1398  -6.0052  -5.0968
    -5.0836  -5.0504  -4.9324  -4.9190   3.5418   6.7158   6.7271   7.3207
     7.9713   8.1335   8.7350   9.3377   9.5019   9.7009  13.0360  13.6525
    13.7120  15.1632

          k =-0.1500 0.3500 0.1500 (  5082 PWs)   bands (ev):

   -46.0415 -22.4473 -22.2946 -22.2944  -6.6525  -6.1191  -5.9704  -5.1166
    -5.0804  -5.0369  -4.9541  -4.9160   3.3194   6.4069   6.6484   7.2262
     7.8591   8.1001   8.6075   9.3511   9.5506   9.9692  12.9736  13.9914
    14.0235  14.6874

          k =-0.1500 0.4500 0.1500 (  5084 PWs)   bands (ev):

   -46.0413 -22.4580 -22.2942 -22.2940  -6.5423  -6.1102  -5.9480  -5.1271
    -5.0782  -5.0211  -4.9703  -4.9216   3.1922   6.1248   6.5933   7.2716
     7.8125   8.0587   8.5836   9.3472   9.5806  10.1000  12.9179  14.2083
    14.2145  14.4787

          k = 0.2500 0.1500 0.2500 (  5081 PWs)   bands (ev):

   -46.0416 -22.4109 -22.3125 -22.3121  -6.7579  -6.0859  -5.9620  -5.0958
    -5.0811  -5.0377  -4.9281  -4.9084   3.4243   6.6314   6.7469   7.1270
     7.6046   7.9386   9.0287   9.2475   9.5470   9.6194  13.3760  13.5724
    13.7272  14.9574

          k =-0.1500 0.3500 0.2500 (  5080 PWs)   bands (ev):

   -46.0412 -22.4465 -22.3115 -22.2939  -6.5558  -6.0969  -5.9620  -5.1077
    -5.0815  -5.0172  -4.9256  -4.8837   3.2464   6.3291   6.5575   6.9387
     7.5618   7.9733   8.6231   9.3678   9.5470   9.8184  13.2497  13.9620
    14.0729  14.9420

          k = 0.3500 0.1500 0.2500 (  5080 PWs)   bands (ev):

   -46.0412 -22.4102 -22.3292 -22.3116  -6.6716  -6.0364  -5.9212  -5.0972
    -5.0734  -5.0173  -4.9273  -4.9061   3.2843   6.4959   6.6455   6.8660
     7.4263   7.9312   8.9060   9.2446   9.5019   9.8023  13.3537  13.7848
    13.9965  14.9130

          k =-0.1500 0.4500 0.2500 (  5077 PWs)   bands (ev):

   -46.0410 -22.4572 -22.3110 -22.2934  -6.4657  -6.0800  -5.9516  -5.1108
    -5.0772  -4.9970  -4.9342  -4.8761   3.1488   6.0831   6.4388   6.9305
     7.5517   8.0448   8.4561   9.4157   9.5177   9.8241  13.2295  14.1807
    14.2573  15.0219

          k = 0.4500 0.1500 0.2500 (  5077 PWs)   bands (ev):

   -46.0410 -22.4098 -22.3396 -22.3111  -6.6266  -5.9988  -5.8921  -5.0968
    -5.0664  -4.9988  -4.9282  -4.9122   3.1983   6.2822   6.5716   6.8204
     7.3939   7.9867   8.7348   9.3012   9.4089   9.8800  13.3390  13.9732
    14.2046  14.9392

          k = 0.3500 0.1500 0.3500 (  5081 PWs)   bands (ev):

   -46.0409 -22.4095 -22.3286 -22.3283  -6.6294  -5.9681  -5.8840  -5.0874
    -5.0664  -4.9941  -4.9219  -4.8746   3.1988   6.4460   6.4742   6.6408
     7.0531   7.9128   8.9364   9.1322   9.3081  10.0210  13.5731  13.8429
    14.1505  15.1960

          k =-0.1500 0.4500 0.3500 (  5079 PWs)   bands (ev):

   -46.0406 -22.4563 -22.3279 -22.2928  -6.4290  -6.0517  -5.8981  -5.0995
    -5.0593  -4.9840  -4.9523  -4.7859   3.0920   6.0079   6.4973   6.5965
     7.0763   8.0126   8.5584   9.0993   9.2808  10.0093  13.6108  14.1532
    14.3655  15.5043

          k = 0.4500 0.1500 0.3500 (  5079 PWs)   bands (ev):

   -46.0406 -22.4091 -22.3388 -22.3280  -6.6150  -5.9146  -5.8572  -5.0836
    -5.0543  -4.9791  -4.9328  -4.8470   3.1404   6.2360   6.4741   6.5362
     6.9393   7.9491   8.7859   9.0963   9.1882  10.1567  13.6853  13.9704
    14.2955  15.4319

          k = 0.4500 0.1500 0.4500 (  5073 PWs)   bands (ev):

   -46.0404 -22.4087 -22.3384 -22.3383  -6.6184  -5.8477  -5.8355  -5.0785
    -5.0334  -4.9657  -4.9531  -4.8014   3.0968   6.1136   6.4517   6.5154
     6.6453   7.9723   8.5851   9.0615   9.0699  10.3346  13.9453  13.9936
    14.3809  15.7383

          k =-0.2500 0.3500 0.2500 (  5072 PWs)   bands (ev):

   -46.0409 -22.4457 -22.3109 -22.3107  -6.4524  -6.0937  -5.9919  -5.0916
    -5.0705  -4.9695  -4.8827  -4.8470   3.3043   6.1583   6.3282   6.6483
     7.4050   7.4268   8.7626   9.5241   9.6397   9.7125  13.3190  13.9507
    14.0684  15.1927

          k =-0.2500 0.4500 0.2500 (  5073 PWs)   bands (ev):

   -46.0406 -22.4564 -22.3105 -22.3103  -6.3608  -6.0891  -6.0014  -5.0902
    -5.0613  -4.9274  -4.8890  -4.8325   3.2495   6.0211   6.1087   6.5809
     7.3868   7.4458   8.5359   9.4731   9.6681   9.7652  13.3800  14.1038
    14.2648  15.4711

          k = 0.3500 0.2500 0.3500 (  5057 PWs)   bands (ev):

   -46.0405 -22.4269 -22.3278 -22.3276  -6.4766  -6.0299  -5.9506  -5.0638
    -5.0584  -4.9170  -4.8385  -4.8358   3.3672   6.0990   6.1043   6.4613
     6.9281   7.3041   8.4897   9.5416   9.5896  10.0261  13.5459  13.9506
    14.1414  15.5059

          k =-0.2500 0.4500 0.3500 (  5063 PWs)   bands (ev):

   -46.0403 -22.4556 -22.3272 -22.3097  -6.3010  -6.1032  -5.9862  -5.0738
    -5.0358  -4.9007  -4.8483  -4.7542   3.3374   5.8396   6.1124   6.2633
     6.8220   7.3845   8.0788   9.4934   9.7543   9.9806  13.6785  14.1069
    14.3254  15.8675

          k = 0.4500 0.2500 0.3500 (  5063 PWs)   bands (ev):

   -46.0403 -22.4265 -22.3381 -22.3272  -6.4655  -6.0067  -5.9273  -5.0584
    -5.0434  -4.8702  -4.8366  -4.8107   3.3797   5.9656   6.0848   6.2287
     6.8097   7.3000   8.1374   9.5733   9.5927  10.1504  13.7512  13.9764
    14.2867  15.8422

          k = 0.4500 0.2500 0.4500 (  5070 PWs)   bands (ev):

   -46.0401 -22.4260 -22.3376 -22.3376  -6.4728  -5.9470  -5.9355  -5.0512
    -5.0276  -4.8320  -4.8206  -4.7729   3.4257   5.9301   5.9492   6.1025
     6.5869   7.2707   7.7183   9.6065   9.6113  10.3258  13.9732  14.0372
    14.3567  16.1632

          k =-0.3500 0.4500 0.3500 (  5056 PWs)   bands (ev):

   -46.0400 -22.4548 -22.3266 -22.3264  -6.2053  -6.1332  -6.0404  -5.0500
    -5.0215  -4.8283  -4.7510  -4.7088   3.6340   5.5624   5.8685   6.0528
     6.6856   6.8941   7.3250   9.8591  10.0001  10.0371  13.8922  14.1862
    14.3257  16.2583

          k = 0.4500 0.3500 0.4500 (  5051 PWs)   bands (ev):

   -46.0397 -22.4433 -22.3369 -22.3369  -6.3246  -6.0281  -6.0159  -5.0252
    -5.0238  -4.7477  -4.7071  -4.7035   3.8884   5.5339   5.5344   6.0186
     6.5869   6.6890   6.7751   9.9570   9.9664  10.3171  14.1374  14.2047
    14.3477  16.6118

     the Fermi energy is    10.4079 ev

!    total energy              =    -364.95345918 Ry
     Harris-Foulkes estimate   =    -364.95345919 Ry
     estimated scf accuracy    <          9.9E-09 Ry

     The total energy is the sum of the following terms:

     one-electron contribution =     -83.74123714 Ry
     hartree contribution      =      71.28275876 Ry
     xc contribution           =     -85.83782859 Ry
     ewald contribution        =    -266.66324373 Ry
     smearing contrib. (-TS)   =       0.00609151 Ry

     convergence has been achieved in  13 iterations

     Forces acting on atoms (cartesian axes, Ry/au):

     atom    1 type  1   force =     0.00000000    0.01935497    0.00000000
     atom    2 type  2   force =     0.00000000   -0.04415382    0.00000000
     atom    3 type  3   force =     0.00000000    0.00397800    0.00000000
     atom    4 type  3   force =     0.00000000    0.01684285    0.00000000
     atom    5 type  3   force =     0.00000000    0.00397800    0.00000000

     Total force =     0.017758     Total SCF correction =     0.000052


     Computing stress (Cartesian axis) and pressure

          total   stress  (Ry/bohr**3)                   (kbar)     P=   21.19
   0.00003343   0.00000000   0.00000000          4.92      0.00      0.00
   0.00000000   0.00036536   0.00000000          0.00     53.75      0.00
   0.00000000   0.00000000   0.00003343          0.00      0.00      4.92


     BFGS Geometry Optimization

     number of scf cycles    =   1
     number of bfgs steps    =   0

     energy   new            =    -364.9534591795 Ry

     new trust radius        =       0.0168428469 bohr
     new conv_thr            =       0.0000000100 Ry


ATOMIC_POSITIONS (crystal)
Pb       0.000000000   0.000000000   0.000000000    0   0   0
Ti       0.500000000   0.550000000   0.500000000    0   0   0
O        0.500000000   0.500531108   0.000000000
O        0.500000000   0.002248711   0.500000000
O        0.000000000   0.500531108   0.500000000



     Writing output data file PbTiO3.save/
     NEW-OLD atomic charge density approx. for the potential

     Check: negative core charge=   -0.000006

     total cpu time spent up to now is      322.1 secs

     Self-consistent Calculation

     iteration #  1     ecut=    80.00 Ry     beta= 0.70
     Davidson diagonalization with overlap
     ethr =  1.00E-06,  avg # of iterations =  3.4

     total cpu time spent up to now is      349.2 secs

     total energy              =    -364.95370036 Ry
     Harris-Foulkes estimate   =    -364.95375033 Ry
     estimated scf accuracy    <       0.00007407 Ry

     iteration #  2     ecut=    80.00 Ry     beta= 0.70
     Davidson diagonalization with overlap
     ethr =  1.68E-07,  avg # of iterations =  4.2

     total cpu time spent up to now is      373.9 secs

     total energy              =    -364.95368421 Ry
     Harris-Foulkes estimate   =    -364.95376638 Ry
     estimated scf accuracy    <       0.00020883 Ry

     iteration #  3     ecut=    80.00 Ry     beta= 0.70
     Davidson diagonalization with overlap
     ethr =  1.68E-07,  avg # of iterations =  3.3

     total cpu time spent up to now is      396.9 secs

     total energy              =    -364.95372615 Ry
     Harris-Foulkes estimate   =    -364.95373228 Ry
     estimated scf accuracy    <       0.00001827 Ry

     iteration #  4     ecut=    80.00 Ry     beta= 0.70
     Davidson diagonalization with overlap
     ethr =  4.15E-08,  avg # of iterations =  2.7

     total cpu time spent up to now is      417.4 secs

     total energy              =    -364.95372888 Ry
     Harris-Foulkes estimate   =    -364.95372919 Ry
     estimated scf accuracy    <       0.00000061 Ry

     iteration #  5     ecut=    80.00 Ry     beta= 0.70
     Davidson diagonalization with overlap
     ethr =  1.38E-09,  avg # of iterations =  3.9

     total cpu time spent up to now is      441.6 secs

     total energy              =    -364.95372908 Ry
     Harris-Foulkes estimate   =    -364.95372918 Ry
     estimated scf accuracy    <       0.00000023 Ry

     iteration #  6     ecut=    80.00 Ry     beta= 0.70
     Davidson diagonalization with overlap
     ethr =  5.32E-10,  avg # of iterations =  3.0

     total cpu time spent up to now is      463.4 secs

     total energy              =    -364.95372913 Ry
     Harris-Foulkes estimate   =    -364.95372915 Ry
     estimated scf accuracy    <       0.00000008 Ry

     iteration #  7     ecut=    80.00 Ry     beta= 0.70
     Davidson diagonalization with overlap
     ethr =  1.75E-10,  avg # of iterations =  2.2

     total cpu time spent up to now is      483.8 secs

     End of self-consistent calculation

          k = 0.0500 0.0500 0.0500 (  5047 PWs)   bands (ev):

   -46.0616 -22.4088 -22.3050 -22.3049  -7.2262  -6.2423  -6.1229  -5.0653
    -5.0467  -5.0464  -4.9094  -4.8927   4.4531   6.8134   6.8606   7.0039
     8.7343   8.7614   9.1601   9.2491   9.5112   9.5321  12.5129  13.0094
    13.0193  14.7231

          k = 0.0500 0.0500 0.1500 (  5074 PWs)   bands (ev):

   -46.0614 -22.4084 -22.3156 -22.3046  -7.1458  -6.2078  -6.0934  -5.0729
    -5.0545  -5.0460  -4.9395  -4.8920   4.1573   6.8691   6.9443   7.1790
     8.5313   8.7123   9.0962   9.1667   9.3762   9.5103  12.8292  13.0189
    13.0929  14.9273

          k = 0.0500 0.0500 0.2500 (  5093 PWs)   bands (ev):

   -46.0611 -22.4077 -22.3327 -22.3040  -7.0119  -6.1467  -6.0466  -5.0857
    -5.0674  -5.0452  -4.9958  -4.8874   3.7889   6.8806   7.0510   7.2040
     8.4278   8.5223   9.0071   9.0899   9.2968   9.5742  13.0193  13.2895
    13.4053  14.9273

          k = 0.0500 0.0500 0.3500 (  5090 PWs)   bands (ev):

   -46.0607 -22.4071 -22.3497 -22.3033  -6.8723  -6.0753  -6.0039  -5.1040
    -5.0827  -5.0504  -5.0443  -4.8847   3.5000   6.5410   7.2332   7.3669
     8.1674   8.2880   8.9395   9.0115   9.3925   9.9456  13.0196  13.7055
    13.7997  14.2513

          k = 0.0500 0.0500 0.4500 (  5073 PWs)   bands (ev):

   -46.0605 -22.4067 -22.3602 -22.3030  -6.7828  -6.0175  -5.9867  -5.1307
    -5.0940  -5.0709  -5.0438  -4.8843   3.3495   6.2670   7.4245   7.6182
     7.8870   7.9916   8.9177   8.9936   9.4452  10.3856  13.0030  13.5418
    13.9516  14.0722

          k = 0.0500 0.1500 0.1500 (  5079 PWs)   bands (ev):

   -46.0612 -22.4193 -22.3152 -22.3042  -7.0519  -6.1870  -6.0656  -5.0730
    -5.0653  -5.0529  -4.9309  -4.9131   3.9352   6.8246   6.9271   7.3467
     8.3122   8.5381   8.9435   9.2209   9.3362   9.6031  12.8293  13.2630
    13.3203  15.0303

          k = 0.0500 0.1500 0.2500 (  5077 PWs)   bands (ev):

   -46.0609 -22.4186 -22.3322 -22.3035  -6.9224  -6.1338  -6.0262  -5.0892
    -5.0753  -5.0524  -4.9623  -4.9038   3.6407   6.7838   7.0475   7.2838
     8.1754   8.3814   8.8236   9.0773   9.2687   9.7581  13.2394  13.3114
    13.5761  15.0640

          k = 0.0500 0.1500 0.3500 (  5080 PWs)   bands (ev):

   -46.0605 -22.4179 -22.3492 -22.3029  -6.7896  -6.0790  -5.9831  -5.1080
    -5.0849  -5.0520  -4.9891  -4.9005   3.3936   6.5234   7.1613   7.3343
     7.9388   8.2305   8.7685   9.0576   9.2495  10.0006  13.2562  13.6989
    13.9176  14.4174

          k = 0.0500 0.1500 0.4500 (  5079 PWs)   bands (ev):

   -46.0603 -22.4175 -22.3597 -22.3025  -6.7059  -6.0445  -5.9536  -5.1229
    -5.0936  -5.0517  -4.9977  -4.9032   3.2602   6.2697   7.2769   7.4981
     7.7621   7.9798   8.7949   9.1244   9.2195  10.1968  13.2359  13.9200
    13.9536  14.1610

          k = 0.0500 0.2500 0.2500 (  5076 PWs)   bands (ev):

   -46.0605 -22.4361 -22.3315 -22.3029  -6.7759  -6.1165  -5.9833  -5.0934
    -5.0797  -5.0601  -4.9383  -4.9167   3.4157   6.6455   7.0548   7.1888
     7.9594   8.1121   8.5915   9.0696   9.4442   9.9088  13.2695  13.6487
    13.8479  15.0061

          k = 0.0500 0.2500 0.3500 (  5080 PWs)   bands (ev):

   -46.0602 -22.4353 -22.3484 -22.3022  -6.6636  -6.0823  -5.9303  -5.1033
    -5.0839  -5.0614  -4.9485  -4.8950   3.2247   6.4785   6.9459   7.2596
     7.7428   8.0866   8.5008   8.8804   9.5535   9.9155  13.6090  13.7033
    14.1007  14.7152

          k = 0.0500 0.2500 0.4500 (  5084 PWs)   bands (ev):

   -46.0600 -22.4349 -22.3588 -22.3018  -6.5986  -6.0604  -5.8887  -5.1095
    -5.0920  -5.0625  -4.9416  -4.8912   3.1165   6.2634   6.9685   7.2678
     7.6377   8.0930   8.4448   8.8655   9.5765   9.8785  13.6204  13.9175
    14.2949  14.5261

          k = 0.0500 0.3500 0.3500 (  5079 PWs)   bands (ev):

   -46.0598 -22.4527 -22.3476 -22.3016  -6.5600  -6.0522  -5.8704  -5.1021
    -5.0867  -5.0643  -4.9713  -4.8364   3.0614   6.2845   6.6971   7.2432
     7.6593   7.9448   8.3824   8.8349   9.5441   9.9461  13.6530  14.0114
    14.2887  15.0363

          k = 0.0500 0.3500 0.4500 (  5079 PWs)   bands (ev):

   -46.0596 -22.4521 -22.3580 -22.3012  -6.5297  -6.0201  -5.8166  -5.1031
    -5.0906  -5.0673  -4.9793  -4.8018   2.9747   6.1796   6.5540   7.3219
     7.4676   8.1212   8.2944   8.7104   9.3560  10.0107  13.8861  14.0065
    14.4514  15.0857

          k = 0.0500 0.4500 0.4500 (  5100 PWs)   bands (ev):

   -46.0594 -22.4628 -22.3574 -22.3007  -6.5108  -5.9630  -5.7675  -5.1057
    -5.0900  -5.0676  -5.0034  -4.7503   2.8884   5.9865   6.4454   7.2907
     7.4607   8.0494   8.3509   8.6479   9.0412  10.1876  13.8674  14.2404
    14.5585  15.4546

          k = 0.1500 0.1500 0.1500 (  5095 PWs)   bands (ev):

   -46.0610 -22.4189 -22.3149 -22.3146  -6.9770  -6.1617  -6.0427  -5.0813
    -5.0708  -5.0527  -4.9283  -4.9137   3.7872   6.7927   6.8500   7.4545
     8.1650   8.3234   8.9016   9.2859   9.4421   9.4804  13.0526  13.2985
    13.3371  15.5139

          k = 0.1500 0.1500 0.2500 (  5084 PWs)   bands (ev):

   -46.0607 -22.4182 -22.3318 -22.3141  -6.8558  -6.1186  -6.0038  -5.0953
    -5.0723  -5.0492  -4.9448  -4.9039   3.5624   6.7393   6.8418   7.3064
     7.9551   8.1388   8.9422   9.2099   9.3777   9.6692  13.2595  13.4290
    13.5720  15.1370

          k = 0.1500 0.1500 0.3500 (  5082 PWs)   bands (ev):

   -46.0603 -22.4175 -22.3487 -22.3134  -6.7360  -6.0724  -5.9612  -5.1077
    -5.0651  -5.0435  -4.9681  -4.9005   3.3580   6.5213   6.8482   7.1865
     7.7597   8.1842   8.7180   9.2426   9.3873   9.8764  13.2058  13.7476
    13.9088  14.6299

          k = 0.1500 0.1500 0.4500 (  5084 PWs)   bands (ev):

   -46.0601 -22.4170 -22.3592 -22.3130  -6.6637  -6.0422  -5.9316  -5.1126
    -5.0593  -5.0370  -4.9841  -4.9043   3.2426   6.2754   6.8468   7.2285
     7.6685   8.2968   8.4707   9.3173   9.3701   9.9810  13.1411  13.9620
    14.1455  14.3850

          k = 0.1500 0.2500 0.2500 (  5081 PWs)   bands (ev):

   -46.0603 -22.4357 -22.3310 -22.3134  -6.7070  -6.1070  -5.9857  -5.0974
    -5.0819  -5.0358  -4.9197  -4.8990   3.4091   6.5852   6.7063   7.1315
     7.6791   7.9668   8.8579   9.2675   9.4901   9.7612  13.3032  13.6284
    13.8023  14.9463

          k = 0.1500 0.2500 0.3500 (  5080 PWs)   bands (ev):

   -46.0600 -22.4349 -22.3479 -22.3127  -6.6005  -6.0894  -5.9391  -5.1002
    -5.0711  -5.0263  -4.9221  -4.8794   3.2690   6.4494   6.6685   6.9001
     7.3789   8.0149   8.9147   9.0765   9.5569   9.7588  13.4416  13.7317
    14.0431  14.9017

          k = 0.1500 0.2500 0.4500 (  5077 PWs)   bands (ev):

   -46.0598 -22.4344 -22.3584 -22.3123  -6.5402  -6.0821  -5.8984  -5.0989
    -5.0610  -5.0241  -4.9154  -4.8778   3.1839   6.2619   6.6384   6.8242
     7.2863   8.1130   8.7353   9.1595   9.4948   9.7345  13.4581  13.9046
    14.2410  14.9271

          k = 0.1500 0.3500 0.3500 (  5081 PWs)   bands (ev):

   -46.0596 -22.4522 -22.3471 -22.3120  -6.4843  -6.0785  -5.9145  -5.0971
    -5.0644  -5.0051  -4.9294  -4.8209   3.1657   6.2472   6.5791   6.6653
     7.0955   7.9843   8.7646   9.1143   9.4014   9.8964  13.5660  13.9170
    14.2084  15.2081

          k = 0.1500 0.3500 0.4500 (  5079 PWs)   bands (ev):

   -46.0594 -22.4517 -22.3575 -22.3116  -6.4533  -6.0690  -5.8653  -5.0927
    -5.0451  -5.0100  -4.9313  -4.7865   3.1089   6.1632   6.4750   6.6352
     6.8875   8.0573   8.7219   9.0115   9.1909   9.9992  13.8067  13.9080
    14.3589  15.4240

          k = 0.1500 0.4500 0.4500 (  5073 PWs)   bands (ev):

   -46.0592 -22.4623 -22.3570 -22.3112  -6.4293  -6.0241  -5.8456  -5.0901
    -5.0263  -4.9929  -4.9556  -4.7336   3.0555   5.9663   6.3976   6.6206
     6.7589   8.0583   8.4681   8.9171   9.1391  10.1677  13.8561  14.1145
    14.4566  15.7619

          k = 0.2500 0.2500 0.2500 (  5070 PWs)   bands (ev):

   -46.0600 -22.4349 -22.3305 -22.3302  -6.6043  -6.0893  -5.9810  -5.0866
    -5.0822  -5.0051  -4.8968  -4.8726   3.3799   6.4002   6.4902   6.9749
     7.4608   7.5460   9.0403   9.5037   9.5139   9.6516  13.3035  13.7702
    13.7803  14.9763

          k = 0.2500 0.2500 0.3500 (  5072 PWs)   bands (ev):

   -46.0596 -22.4342 -22.3472 -22.3296  -6.5182  -6.0764  -5.9515  -5.0808
    -5.0658  -4.9691  -4.8796  -4.8543   3.3291   6.2694   6.3461   6.6586
     7.1860   7.5112   8.9142   9.4336   9.5457   9.7949  13.3820  13.8220
    14.0298  15.1754

          k = 0.2500 0.2500 0.4500 (  5073 PWs)   bands (ev):

   -46.0594 -22.4337 -22.3576 -22.3292  -6.4760  -6.0745  -5.9145  -5.0765
    -5.0537  -4.9346  -4.8745  -4.8508   3.2888   6.1777   6.2619   6.4389
     7.1175   7.5529   8.6901   9.4591   9.5010   9.8532  13.4987  13.9007
    14.2248  15.4161

          k = 0.2500 0.3500 0.3500 (  5057 PWs)   bands (ev):

   -46.0593 -22.4515 -22.3464 -22.3289  -6.3759  -6.1018  -5.9744  -5.0737
    -5.0470  -4.9289  -4.8539  -4.7915   3.3465   6.0213   6.1799   6.4356
     6.8773   7.3952   8.4572   9.5099   9.7115   9.8891  13.5335  13.9644
    14.1607  15.5084

          k = 0.2500 0.3500 0.4500 (  5063 PWs)   bands (ev):

   -46.0591 -22.4510 -22.3568 -22.3285  -6.3461  -6.1172  -5.9324  -5.0668
    -5.0303  -4.9034  -4.8421  -4.7575   3.3577   6.0142   6.0567   6.2437
     6.6869   7.4233   8.1017   9.5274   9.7009  10.0023  13.7826  13.9458
    14.3055  15.8444

          k = 0.2500 0.4500 0.4500 (  5070 PWs)   bands (ev):

   -46.0589 -22.4616 -22.3563 -22.3281  -6.2981  -6.1049  -5.9438  -5.0626
    -5.0121  -4.8826  -4.8243  -4.7022   3.3850   5.8275   6.0690   6.1187
     6.5030   7.3961   7.6422   9.5229   9.7465  10.1493  13.9189  14.0878
    14.3948  16.1792

          k = 0.3500 0.3500 0.3500 (  5055 PWs)   bands (ev):

   -46.0589 -22.4508 -22.3458 -22.3457  -6.3128  -6.0879  -6.0116  -5.0493
    -5.0351  -4.8558  -4.7845  -4.7548   3.5400   5.7618   5.8693   6.2944
     6.8277   6.8908   7.8229   9.7843   9.8834  10.0290  13.7015  14.1355
    14.1384  15.8765

          k = 0.3500 0.3500 0.4500 (  5056 PWs)   bands (ev):

   -46.0587 -22.4503 -22.3561 -22.3453  -6.3046  -6.0878  -5.9898  -5.0390
    -5.0241  -4.8050  -4.7561  -4.7234   3.6618   5.6652   5.7204   6.1324
     6.6546   6.8730   7.3368   9.8402   9.9577  10.1450  13.9359  14.0898
    14.2967  16.2535

          k = 0.3500 0.4500 0.4500 (  5051 PWs)   bands (ev):

   -46.0585 -22.4609 -22.3556 -22.3448  -6.1990  -6.1406  -6.0230  -5.0354
    -5.0080  -4.7772  -4.7078  -4.6641   3.8550   5.4988   5.6576   5.9718
     6.4691   6.7103   6.8452   9.9348  10.1236  10.1479  14.0941  14.2070
    14.3673  16.6139

          k = 0.4500 0.4500 0.4500 (  5034 PWs)   bands (ev):

   -46.0583 -22.4604 -22.3552 -22.3552  -6.2230  -6.0769  -6.0624  -5.0202
    -5.0043  -4.7147  -4.6422  -4.6361   4.3506   5.3216   5.4054   5.8834
     5.9518   6.4537   6.5777  10.1191  10.1322  10.3074  14.2698  14.3438
    14.3469  16.9681

          k =-0.0500 0.1500 0.0500 (  5074 PWs)   bands (ev):

   -46.0614 -22.4197 -22.3046 -22.3045  -7.1304  -6.2189  -6.0888  -5.0648
    -5.0557  -5.0531  -4.9285  -4.9052   4.1496   6.8599   6.8602   7.1883
     8.5537   8.5780   9.1036   9.1469   9.5400   9.5613  12.5147  13.2528
    13.2716  14.7256

          k =-0.0500 0.2500 0.0500 (  5093 PWs)   bands (ev):

   -46.0611 -22.4373 -22.3039 -22.3039  -6.9666  -6.1854  -6.0284  -5.0727
    -5.0641  -5.0626  -4.9892  -4.9002   3.7664   6.8270   6.9388   7.1136
     8.3120   8.3315   9.0966   9.2202   9.6118   9.6766  12.5174  13.6307
    13.6577  14.7302

          k =-0.0500 0.3500 0.0500 (  5090 PWs)   bands (ev):

   -46.0607 -22.4549 -22.3033 -22.3032  -6.7871  -6.1613  -5.9591  -5.1027
    -5.0716  -5.0629  -5.0457  -4.8976   3.4614   6.4518   7.0226   7.1569
     8.1001   8.1004   9.0353   9.4567   9.6659  10.0552  12.5190  13.9949
    14.0275  14.3457

          k =-0.0500 0.4500 0.0500 (  5073 PWs)   bands (ev):

   -46.0605 -22.4656 -22.3029 -22.3028  -6.6633  -6.1559  -5.9097  -5.1407
    -5.0762  -5.0677  -5.0623  -4.8973   3.3004   6.1464   7.0789   7.2434
     7.9452   7.9771   8.9955   9.5482   9.7013  10.5113  12.5172  13.6041
    14.2141  14.2552

          k = 0.1500 0.0500 0.1500 (  5079 PWs)   bands (ev):

   -46.0612 -22.4080 -22.3153 -22.3150  -7.0700  -6.1793  -6.0623  -5.0806
    -5.0548  -5.0525  -4.9404  -4.9059   3.9453   6.8203   7.0103   7.3268
     8.3443   8.4968   8.9716   9.2030   9.4050   9.5250  13.0306  13.1031
    13.1265  15.2723

          k =-0.0500 0.2500 0.1500 (  5077 PWs)   bands (ev):

   -46.0609 -22.4369 -22.3145 -22.3035  -6.8931  -6.1569  -6.0164  -5.0853
    -5.0716  -5.0607  -4.9551  -4.9151   3.6262   6.7222   6.9737   7.2649
     8.0621   8.3157   8.8504   9.2537   9.3972   9.8090  12.8274  13.6331
    13.6799  15.0502

          k = 0.2500 0.0500 0.1500 (  5077 PWs)   bands (ev):

   -46.0609 -22.4073 -22.3323 -22.3145  -6.9464  -6.1268  -6.0127  -5.0912
    -5.0641  -5.0525  -4.9709  -4.9060   3.6518   6.8076   7.0577   7.2891
     8.1476   8.2519   8.9085   9.1902   9.3972   9.6443  13.0780  13.3834
    13.4757  15.2816

          k =-0.0500 0.3500 0.1500 (  5080 PWs)   bands (ev):

   -46.0605 -22.4543 -22.3138 -22.3028  -6.7229  -6.1325  -5.9615  -5.1105
    -5.0713  -5.0667  -4.9856  -4.9121   3.3632   6.4068   6.9744   7.2573
     7.8667   8.1210   8.9389   9.2431   9.4615  10.1102  12.8194  13.9828
    14.0311  14.5278

          k = 0.3500 0.0500 0.1500 (  5080 PWs)   bands (ev):

   -46.0605 -22.4067 -22.3492 -22.3139  -6.8228  -6.0604  -5.9672  -5.1063
    -5.0696  -5.0520  -5.0096  -4.9030   3.4042   6.5430   7.0875   7.3908
     7.8953   8.2418   8.6197   9.2375   9.4227   9.9530  13.0578  13.7611
    13.8475  14.4737

          k =-0.0500 0.4500 0.1500 (  5079 PWs)   bands (ev):

   -46.0603 -22.4651 -22.3133 -22.3024  -6.6094  -6.1220  -5.9241  -5.1328
    -5.0730  -5.0698  -4.9959  -4.9149   3.2192   6.1218   6.9742   7.3449
     7.7451   7.9909   9.0382   9.2212   9.5018  10.3440  12.8055  13.9893
    14.2223  14.2737

          k = 0.4500 0.0500 0.1500 (  5079 PWs)   bands (ev):

   -46.0603 -22.4063 -22.3597 -22.3135  -6.7472  -6.0025  -5.9491  -5.1215
    -5.0731  -5.0516  -5.0281  -4.9041   3.2701   6.2753   7.1936   7.4757
     7.8389   8.0613   8.5222   9.2253   9.4592  10.2241  13.0139  13.9706
    14.0118  14.0977

          k = 0.2500 0.0500 0.2500 (  5076 PWs)   bands (ev):

   -46.0605 -22.4067 -22.3318 -22.3313  -6.8467  -6.0818  -5.9573  -5.0906
    -5.0663  -5.0582  -4.9443  -4.9334   3.4428   6.7631   6.9966   7.2831
     7.8302   7.9634   8.9505   9.0377   9.6014   9.6987  13.3054  13.4421
    13.7356  15.1073

          k =-0.0500 0.3500 0.2500 (  5080 PWs)   bands (ev):

   -46.0602 -22.4535 -22.3307 -22.3022  -6.6306  -6.0925  -5.9343  -5.1046
    -5.0817  -5.0647  -4.9508  -4.8970   3.2087   6.3493   6.9629   7.1686
     7.7757   8.0336   8.4843   9.1172   9.5064  10.0200  13.2555  14.0127
    14.1079  14.8114

          k = 0.3500 0.0500 0.2500 (  5080 PWs)   bands (ev):

   -46.0602 -22.4060 -22.3485 -22.3308  -6.7582  -6.0123  -5.9048  -5.0957
    -5.0685  -5.0595  -4.9567  -4.9257   3.2504   6.5483   6.8970   7.2702
     7.6675   7.9528   8.6259   9.1223   9.6164   9.8878  13.3307  13.7685
    14.0101  14.7771

          k =-0.0500 0.4500 0.2500 (  5084 PWs)   bands (ev):

   -46.0600 -22.4642 -22.3302 -22.3018  -6.5454  -6.0661  -5.9039  -5.1178
    -5.0811  -5.0709  -4.9495  -4.8898   3.0897   6.0802   6.9388   7.1578
     7.7172   7.9781   8.5020   9.1605   9.4802  10.0699  13.2436  14.2313
    14.2607  14.7013

          k = 0.4500 0.0500 0.2500 (  5084 PWs)   bands (ev):

   -46.0600 -22.4056 -22.3589 -22.3304  -6.7108  -5.9456  -5.8823  -5.1046
    -5.0708  -5.0628  -4.9490  -4.9305   3.1401   6.2818   6.9837   7.1361
     7.7118   8.0738   8.3100   9.2047   9.5483  10.0172  13.3098  14.0219
    14.1980  14.5678

          k = 0.3500 0.0500 0.3500 (  5079 PWs)   bands (ev):

   -46.0598 -22.4053 -22.3478 -22.3475  -6.7148  -5.9288  -5.8409  -5.0900
    -5.0734  -5.0580  -4.9738  -4.8859   3.1000   6.4785   6.6378   7.2196
     7.3905   7.9856   8.6402   8.8687   9.5756  10.0151  13.6619  13.8103
    14.1952  15.0316

          k =-0.0500 0.4500 0.3500 (  5079 PWs)   bands (ev):

   -46.0596 -22.4633 -22.3471 -22.3011  -6.5149  -6.0053  -5.8326  -5.1077
    -5.0876  -5.0686  -4.9831  -4.8006   2.9638   6.0340   6.6609   7.1739
     7.6704   7.9219   8.3291   8.8527   9.3385  10.0660  13.6427  14.2416
    14.4222  15.2454

          k = 0.4500 0.0500 0.3500 (  5079 PWs)   bands (ev):

   -46.0596 -22.4049 -22.3581 -22.3472  -6.6981  -5.8509  -5.8085  -5.0927
    -5.0717  -5.0652  -4.9851  -4.8565   3.0097   6.2419   6.6509   7.0925
     7.3602   8.1555   8.4069   8.8768   9.3972  10.1635  13.7181  14.0197
    14.3287  15.1165

          k = 0.4500 0.0500 0.4500 (  5100 PWs)   bands (ev):

   -46.0594 -22.4045 -22.3576 -22.3575  -6.6992  -5.7740  -5.7606  -5.0914
    -5.0696  -5.0651  -5.0136  -4.8106   2.9294   6.1212   6.5349   7.1224
     7.1417   8.3051   8.4687   8.6245   9.1603  10.3357  13.9992  14.0273
    14.4119  15.3940

          k =-0.1500 0.2500 0.1500 (  5084 PWs)   bands (ev):

   -46.0607 -22.4364 -22.3142 -22.3139  -6.8208  -6.1353  -6.0097  -5.0936
    -5.0800  -5.0476  -4.9305  -4.9158   3.5462   6.7180   6.7338   7.3147
     7.9768   8.1426   8.7492   9.3405   9.4973   9.6988  13.0230  13.6260
    13.6829  15.1637

          k =-0.1500 0.3500 0.1500 (  5082 PWs)   bands (ev):

   -46.0603 -22.4538 -22.3134 -22.3133  -6.6556  -6.1126  -5.9752  -5.1132
    -5.0767  -5.0343  -4.9522  -4.9128   3.3253   6.4092   6.6585   7.2196
     7.8588   8.1142   8.6115   9.3546   9.5458   9.9665  12.9610  13.9664
    13.9974  14.6853

          k =-0.1500 0.4500 0.1500 (  5084 PWs)   bands (ev):

   -46.0601 -22.4646 -22.3130 -22.3129  -6.5475  -6.1016  -5.9530  -5.1234
    -5.0744  -5.0187  -4.9685  -4.9182   3.1992   6.1250   6.6051   7.2663
     7.8093   8.0763   8.5815   9.3509   9.5755  10.0974  12.9054  14.1841
    14.1911  14.4742

          k = 0.2500 0.1500 0.2500 (  5081 PWs)   bands (ev):

   -46.0603 -22.4175 -22.3313 -22.3309  -6.7550  -6.0852  -5.9663  -5.0928
    -5.0781  -5.0348  -4.9246  -4.9063   3.4268   6.6343   6.7470   7.1263
     7.6118   7.9384   9.0451   9.2443   9.5504   9.6183  13.3581  13.5492
    13.7105  14.9559

          k =-0.1500 0.3500 0.2500 (  5080 PWs)   bands (ev):

   -46.0600 -22.4530 -22.3303 -22.3127  -6.5585  -6.0907  -5.9662  -5.1042
    -5.0780  -5.0145  -4.9227  -4.8820   3.2515   6.3364   6.5631   6.9316
     7.5586   7.9725   8.6414   9.3636   9.5528   9.8149  13.2386  13.9367
    14.0507  14.9378

          k = 0.3500 0.1500 0.2500 (  5080 PWs)   bands (ev):

   -46.0600 -22.4168 -22.3480 -22.3304  -6.6668  -6.0375  -5.9254  -5.0944
    -5.0704  -5.0145  -4.9238  -4.9035   3.2864   6.4937   6.6498   6.8669
     7.4305   7.9325   8.9100   9.2489   9.5064   9.7995  13.3366  13.7679
    13.9795  14.9099

          k =-0.1500 0.4500 0.2500 (  5077 PWs)   bands (ev):

   -46.0598 -22.4637 -22.3298 -22.3123  -6.4706  -6.0714  -5.9560  -5.1072
    -5.0736  -4.9948  -4.9307  -4.8747   3.1548   6.0874   6.4461   6.9245
     7.5462   8.0432   8.4737   9.4135   9.5201   9.8226  13.2177  14.1557
    14.2353  15.0192

          k = 0.4500 0.1500 0.2500 (  5077 PWs)   bands (ev):

   -46.0598 -22.4164 -22.3584 -22.3299  -6.6207  -6.0011  -5.8962  -5.0940
    -5.0634  -4.9963  -4.9243  -4.9095   3.2003   6.2768   6.5772   6.8231
     7.3967   7.9906   8.7345   9.3059   9.4141   9.8762  13.3217  13.9604
    14.1864  14.9372

          k = 0.3500 0.1500 0.3500 (  5081 PWs)   bands (ev):

   -46.0596 -22.4161 -22.3473 -22.3471  -6.6228  -5.9710  -5.8882  -5.0848
    -5.0632  -4.9917  -4.9199  -4.8700   3.2000   6.4438   6.4765   6.6468
     7.0560   7.9126   8.9429   9.1310   9.3093  10.0178  13.5616  13.8240
    14.1360  15.1928

          k =-0.1500 0.4500 0.3500 (  5079 PWs)   bands (ev):

   -46.0594 -22.4629 -22.3466 -22.3116  -6.4334  -6.0429  -5.9022  -5.0959
    -5.0557  -4.9816  -4.9491  -4.7847   3.0968   6.0158   6.5005   6.5895
     7.0708   8.0085   8.5758   9.1020   9.2764  10.0142  13.5993  14.1283
    14.3457  15.5005

          k = 0.4500 0.1500 0.3500 (  5079 PWs)   bands (ev):

   -46.0594 -22.4157 -22.3576 -22.3467  -6.6076  -5.9182  -5.8613  -5.0810
    -5.0511  -4.9771  -4.9307  -4.8421   3.1412   6.2318   6.4805   6.5404
     6.9426   7.9495   8.7874   9.0962   9.1890  10.1529  13.6709  13.9561
    14.2813  15.4309

          k = 0.4500 0.1500 0.4500 (  5073 PWs)   bands (ev):

   -46.0592 -22.4153 -22.3571 -22.3571  -6.6105  -5.8518  -5.8397  -5.0759
    -5.0299  -4.9639  -4.9512  -4.7962   3.0968   6.1099   6.4541   6.5280
     6.6457   7.9721   8.5833   9.0612   9.0699  10.3302  13.9312  13.9777
    14.3698  15.7383

          k =-0.2500 0.3500 0.2500 (  5072 PWs)   bands (ev):

   -46.0596 -22.4523 -22.3297 -22.3295  -6.4537  -6.0884  -5.9960  -5.0881
    -5.0673  -4.9664  -4.8798  -4.8458   3.3089   6.1673   6.3320   6.6426
     7.3991   7.4220   8.7818   9.5229   9.6363   9.7176  13.3087  13.9287
    14.0463  15.1870

          k =-0.2500 0.4500 0.2500 (  5073 PWs)   bands (ev):

   -46.0594 -22.4629 -22.3293 -22.3291  -6.3651  -6.0807  -6.0054  -5.0866
    -5.0580  -4.9240  -4.8866  -4.8314   3.2550   6.0306   6.1104   6.5750
     7.3795   7.4409   8.5535   9.4739   9.6649   9.7706  13.3683  14.0819
    14.2430  15.4677

          k = 0.3500 0.2500 0.3500 (  5057 PWs)   bands (ev):

   -46.0593 -22.4335 -22.3466 -22.3464  -6.4706  -6.0318  -5.9543  -5.0612
    -5.0549  -4.9142  -4.8347  -4.8345   3.3691   6.1067   6.1070   6.4601
     6.9210   7.3017   8.4950   9.5480   9.5935  10.0229  13.5345  13.9315
    14.1244  15.5011

          k =-0.2500 0.4500 0.3500 (  5063 PWs)   bands (ev):

   -46.0591 -22.4621 -22.3460 -22.3285  -6.3047  -6.0951  -5.9898  -5.0702
    -5.0328  -4.8960  -4.8467  -4.7533   3.3421   5.8499   6.1124   6.2574
     6.8155   7.3780   8.0887   9.5019   9.7495   9.9882  13.6664  14.0857
    14.3056  15.8631

          k = 0.4500 0.2500 0.3500 (  5063 PWs)   bands (ev):

   -46.0591 -22.4330 -22.3568 -22.3460  -6.4583  -6.0096  -5.9309  -5.0558
    -5.0400  -4.8678  -4.8351  -4.8067   3.3809   5.9707   6.0923   6.2254
     6.8030   7.2983   8.1394   9.5784   9.5984  10.1467  13.7361  13.9621
    14.2701  15.8398

          k = 0.4500 0.2500 0.4500 (  5070 PWs)   bands (ev):

   -46.0589 -22.4326 -22.3564 -22.3564  -6.4650  -5.9504  -5.9389  -5.0487
    -5.0240  -4.8307  -4.8196  -4.7676   3.4258   5.9374   5.9588   6.0999
     6.5762   7.2700   7.7173   9.6118   9.6163  10.3213  13.9584  14.0209
    14.3431  16.1624

          k =-0.3500 0.4500 0.3500 (  5056 PWs)   bands (ev):

   -46.0587 -22.4614 -22.3453 -22.3452  -6.2050  -6.1289  -6.0437  -5.0463
    -5.0188  -4.8229  -4.7499  -4.7081   3.6382   5.5706   5.8646   6.0516
     6.6823   6.8841   7.3316   9.8690  10.0065  10.0347  13.8794  14.1672
    14.3066  16.2541

          k = 0.4500 0.3500 0.4500 (  5051 PWs)   bands (ev):

   -46.0585 -22.4498 -22.3556 -22.3556  -6.3169  -6.0310  -6.0190  -5.0215
    -5.0213  -4.7424  -4.7059  -4.7029   3.8889   5.5397   5.5427   6.0141
     6.5758   6.6884   6.7751   9.9651   9.9742  10.3127  14.1219  14.1877
    14.3326  16.6107

     the Fermi energy is    10.4082 ev

!    total energy              =    -364.95372914 Ry
     Harris-Foulkes estimate   =    -364.95372914 Ry
     estimated scf accuracy    <          7.8E-10 Ry

     The total energy is the sum of the following terms:

     one-electron contribution =     -83.61595715 Ry
     hartree contribution      =      71.21525421 Ry
     xc contribution           =     -85.83298452 Ry
     ewald contribution        =    -266.72614070 Ry
     smearing contrib. (-TS)   =       0.00609902 Ry

     convergence has been achieved in   7 iterations

     Forces acting on atoms (cartesian axes, Ry/au):

     atom    1 type  1   force =     0.00000000    0.01930978    0.00000000
     atom    2 type  2   force =     0.00000000   -0.04024022    0.00000000
     atom    3 type  3   force =     0.00000000    0.00497214    0.00000000
     atom    4 type  3   force =     0.00000000    0.01098615    0.00000000
     atom    5 type  3   force =     0.00000000    0.00497214    0.00000000

     Total force =     0.013044     Total SCF correction =     0.000070


     Computing stress (Cartesian axis) and pressure

          total   stress  (Ry/bohr**3)                   (kbar)     P=   18.69
   0.00002838   0.00000000   0.00000000          4.17      0.00      0.00
   0.00000000   0.00032437   0.00000000          0.00     47.72      0.00
   0.00000000   0.00000000   0.00002838          0.00      0.00      4.17


     number of scf cycles    =   2
     number of bfgs steps    =   1

     energy   old            =    -364.9534591795 Ry
     energy   new            =    -364.9537291406 Ry

     CASE: energy  _new < energy  _old

     new trust radius        =       0.0185271316 bohr
     new conv_thr            =       0.0000000003 Ry


ATOMIC_POSITIONS (crystal)
Pb       0.000000000   0.000000000   0.000000000    0   0   0
Ti       0.500000000   0.550000000   0.500000000    0   0   0
O        0.500000000   0.501572119   0.000000000
O        0.500000000   0.004722294   0.500000000
O        0.000000000   0.501572119   0.500000000



     Writing output data file PbTiO3.save/
     NEW-OLD atomic charge density approx. for the potential

     Check: negative core charge=   -0.000006

     total cpu time spent up to now is      501.2 secs

     Self-consistent Calculation

     iteration #  1     ecut=    80.00 Ry     beta= 0.70
     Davidson diagonalization with overlap
     ethr =  1.00E-06,  avg # of iterations =  3.5

     total cpu time spent up to now is      529.3 secs

     total energy              =    -364.95393074 Ry
     Harris-Foulkes estimate   =    -364.95399217 Ry
     estimated scf accuracy    <       0.00009332 Ry

     iteration #  2     ecut=    80.00 Ry     beta= 0.70
     Davidson diagonalization with overlap
     ethr =  2.12E-07,  avg # of iterations =  4.1

     total cpu time spent up to now is      554.2 secs

     total energy              =    -364.95390892 Ry
     Harris-Foulkes estimate   =    -364.95401269 Ry
     estimated scf accuracy    <       0.00026571 Ry

     iteration #  3     ecut=    80.00 Ry     beta= 0.70
     Davidson diagonalization with overlap
     ethr =  2.12E-07,  avg # of iterations =  3.3

     total cpu time spent up to now is      577.7 secs

     total energy              =    -364.95396238 Ry
     Harris-Foulkes estimate   =    -364.95396960 Ry
     estimated scf accuracy    <       0.00002214 Ry

     iteration #  4     ecut=    80.00 Ry     beta= 0.70
     Davidson diagonalization with overlap
     ethr =  5.03E-08,  avg # of iterations =  2.7

     total cpu time spent up to now is      598.4 secs

     total energy              =    -364.95396553 Ry
     Harris-Foulkes estimate   =    -364.95396595 Ry
     estimated scf accuracy    <       0.00000080 Ry

     iteration #  5     ecut=    80.00 Ry     beta= 0.70
     Davidson diagonalization with overlap
     ethr =  1.82E-09,  avg # of iterations =  3.9

     total cpu time spent up to now is      623.3 secs

     total energy              =    -364.95396579 Ry
     Harris-Foulkes estimate   =    -364.95396598 Ry
     estimated scf accuracy    <       0.00000047 Ry

     iteration #  6     ecut=    80.00 Ry     beta= 0.70
     Davidson diagonalization with overlap
     ethr =  1.07E-09,  avg # of iterations =  2.9

     total cpu time spent up to now is      644.7 secs

     total energy              =    -364.95396589 Ry
     Harris-Foulkes estimate   =    -364.95396591 Ry
     estimated scf accuracy    <       0.00000008 Ry

     iteration #  7     ecut=    80.00 Ry     beta= 0.70
     Davidson diagonalization with overlap
     ethr =  1.81E-10,  avg # of iterations =  2.3

     total cpu time spent up to now is      665.2 secs

     total energy              =    -364.95396590 Ry
     Harris-Foulkes estimate   =    -364.95396590 Ry
     estimated scf accuracy    <          7.5E-10 Ry

     iteration #  8     ecut=    80.00 Ry     beta= 0.70
     Davidson diagonalization with overlap
     ethr =  1.72E-12,  avg # of iterations =  4.0

     total cpu time spent up to now is      693.6 secs

     End of self-consistent calculation

          k = 0.0500 0.0500 0.0500 (  5047 PWs)   bands (ev):

   -46.0813 -22.4160 -22.3247 -22.3247  -7.2265  -6.2387  -6.1284  -5.0613
    -5.0439  -5.0437  -4.9063  -4.8909   4.4560   6.8144   6.8577   7.0003
     8.7648   8.7934   9.1590   9.2654   9.5150   9.5278  12.4976  12.9649
    12.9735  14.7026

          k = 0.0500 0.0500 0.1500 (  5074 PWs)   bands (ev):

   -46.0811 -22.4156 -22.3353 -22.3243  -7.1456  -6.2046  -6.0989  -5.0689
    -5.0518  -5.0433  -4.9365  -4.8899   4.1603   6.8691   6.9384   7.1776
     8.5590   8.7363   9.1048   9.1696   9.3775   9.5141  12.8146  12.9737
    13.0584  14.8936

          k = 0.0500 0.0500 0.2500 (  5093 PWs)   bands (ev):

   -46.0808 -22.4150 -22.3524 -22.3237  -7.0107  -6.1444  -6.0520  -5.0818
    -5.0647  -5.0424  -4.9927  -4.8853   3.7921   6.8759   7.0495   7.2012
     8.4433   8.5325   9.0212   9.0958   9.3047   9.5794  12.9740  13.2754
    13.3800  14.8932

          k = 0.0500 0.0500 0.3500 (  5090 PWs)   bands (ev):

   -46.0804 -22.4143 -22.3694 -22.3231  -6.8699  -6.0743  -6.0088  -5.1007
    -5.0795  -5.0471  -5.0416  -4.8825   3.5035   6.5345   7.2322   7.3628
     8.1699   8.2884   8.9556   9.0285   9.4065   9.9502  12.9742  13.6925
    13.7778  14.2548

          k = 0.0500 0.0500 0.4500 (  5073 PWs)   bands (ev):

   -46.0802 -22.4139 -22.3799 -22.3227  -6.7794  -6.0181  -5.9911  -5.1278
    -5.0900  -5.0678  -5.0411  -4.8820   3.3533   6.2585   7.4240   7.6149
     7.8871   7.9855   8.9249   9.0249   9.4594  10.3911  12.9603  13.5432
    13.9393  14.0488

          k = 0.0500 0.1500 0.1500 (  5079 PWs)   bands (ev):

   -46.0809 -22.4265 -22.3349 -22.3239  -7.0524  -6.1832  -6.0712  -5.0692
    -5.0624  -5.0502  -4.9282  -4.9107   3.9390   6.8242   6.9286   7.3428
     8.3320   8.5589   8.9547   9.2246   9.3342   9.6013  12.8148  13.2225
    13.2869  15.0064

          k = 0.0500 0.1500 0.2500 (  5077 PWs)   bands (ev):

   -46.0805 -22.4258 -22.3520 -22.3233  -6.9220  -6.1307  -6.0315  -5.0857
    -5.0719  -5.0497  -4.9595  -4.9017   3.6444   6.7823   7.0479   7.2800
     8.1848   8.3927   8.8339   9.0856   9.2741   9.7580  13.2066  13.2892
    13.5508  15.0472

          k = 0.0500 0.1500 0.3500 (  5080 PWs)   bands (ev):

   -46.0802 -22.4251 -22.3689 -22.3227  -6.7882  -6.0768  -5.9880  -5.1049
    -5.0811  -5.0493  -4.9864  -4.8983   3.3974   6.5184   7.1593   7.3330
     7.9413   8.2339   8.7777   9.0767   9.2558  10.0032  13.2149  13.6865
    13.8957  14.4198

          k = 0.0500 0.1500 0.4500 (  5079 PWs)   bands (ev):

   -46.0800 -22.4247 -22.3794 -22.3223  -6.7038  -6.0430  -5.9582  -5.1199
    -5.0895  -5.0489  -4.9953  -4.9009   3.2641   6.2618   7.2754   7.4957
     7.7652   7.9771   8.8096   9.1412   9.2269  10.2016  13.1962  13.9156
    13.9484  14.1379

          k = 0.0500 0.2500 0.2500 (  5076 PWs)   bands (ev):

   -46.0802 -22.4433 -22.3512 -22.3226  -6.7773  -6.1119  -5.9885  -5.0901
    -5.0760  -5.0573  -4.9354  -4.9147   3.4204   6.6511   7.0527   7.1870
     7.9666   8.1175   8.6011   9.0684   9.4537   9.9048  13.2565  13.6120
    13.8239  15.0017

          k = 0.0500 0.2500 0.3500 (  5080 PWs)   bands (ev):

   -46.0798 -22.4425 -22.3681 -22.3220  -6.6646  -6.0778  -5.9350  -5.0999
    -5.0801  -5.0587  -4.9458  -4.8932   3.2289   6.4782   6.9408   7.2621
     7.7471   8.0882   8.5026   8.8908   9.5661   9.9127  13.5786  13.6856
    14.0799  14.7147

          k = 0.0500 0.2500 0.4500 (  5084 PWs)   bands (ev):

   -46.0796 -22.4421 -22.3785 -22.3216  -6.5996  -6.0552  -5.8935  -5.1063
    -5.0879  -5.0598  -4.9391  -4.8895   3.1205   6.2573   6.9675   7.2661
     7.6477   8.0886   8.4429   8.8814   9.5892   9.8792  13.5842  13.9071
    14.2743  14.5262

          k = 0.0500 0.3500 0.3500 (  5079 PWs)   bands (ev):

   -46.0795 -22.4598 -22.3673 -22.3213  -6.5641  -6.0443  -5.8753  -5.0986
    -5.0828  -5.0615  -4.9684  -4.8350   3.0661   6.2928   6.6854   7.2505
     7.6573   7.9473   8.3859   8.8345   9.5572   9.9436  13.6426  13.9779
    14.2693  15.0320

          k = 0.0500 0.3500 0.4500 (  5079 PWs)   bands (ev):

   -46.0793 -22.4593 -22.3777 -22.3209  -6.5340  -6.0110  -5.8217  -5.0997
    -5.0865  -5.0646  -4.9766  -4.8005   2.9787   6.1804   6.5492   7.3204
     7.4752   8.1188   8.2908   8.7173   9.3669  10.0145  13.8769  13.9732
    14.4315  15.0846

          k = 0.0500 0.4500 0.4500 (  5100 PWs)   bands (ev):

   -46.0791 -22.4699 -22.3771 -22.3205  -6.5164  -5.9521  -5.7731  -5.1022
    -5.0859  -5.0651  -5.0006  -4.7493   2.8925   5.9925   6.4368   7.2973
     7.4551   8.0539   8.3456   8.6483   9.0528  10.1927  13.8596  14.2081
    14.5399  15.4485

          k = 0.1500 0.1500 0.1500 (  5095 PWs)   bands (ev):

   -46.0807 -22.4261 -22.3346 -22.3344  -6.9769  -6.1584  -6.0483  -5.0776
    -5.0679  -5.0498  -4.9251  -4.9117   3.7907   6.7959   6.8477   7.4521
     8.1796   8.3317   8.9249   9.2882   9.4354   9.4810  13.0388  13.2675
    13.3026  15.4938

          k = 0.1500 0.1500 0.2500 (  5084 PWs)   bands (ev):

   -46.0803 -22.4254 -22.3515 -22.3338  -6.8544  -6.1164  -6.0092  -5.0920
    -5.0692  -5.0462  -4.9417  -4.9018   3.5656   6.7396   6.8421   7.3051
     7.9637   8.1418   8.9592   9.2115   9.3821   9.6672  13.2310  13.4123
    13.5470  15.1387

          k = 0.1500 0.1500 0.3500 (  5082 PWs)   bands (ev):

   -46.0800 -22.4247 -22.3685 -22.3332  -6.7332  -6.0716  -5.9662  -5.1046
    -5.0620  -5.0402  -4.9650  -4.8983   3.3611   6.5164   6.8499   7.1864
     7.7629   8.1903   8.7186   9.2561   9.3929   9.8764  13.1764  13.7354
    13.8871  14.6297

          k = 0.1500 0.1500 0.4500 (  5084 PWs)   bands (ev):

   -46.0798 -22.4243 -22.3789 -22.3328  -6.6598  -6.0425  -5.9362  -5.1096
    -5.0564  -5.0331  -4.9812  -4.9021   3.2457   6.2675   6.8479   7.2309
     7.6687   8.3047   8.4702   9.3282   9.3773   9.9823  13.1137  13.9515
    14.1237  14.3833

          k = 0.1500 0.2500 0.2500 (  5081 PWs)   bands (ev):

   -46.0800 -22.4429 -22.3508 -22.3331  -6.7074  -6.1031  -5.9910  -5.0940
    -5.0785  -5.0328  -4.9165  -4.8972   3.4133   6.5912   6.7097   7.1269
     7.6797   7.9655   8.8819   9.2602   9.4978   9.7557  13.2918  13.5992
    13.7779  14.9448

          k = 0.1500 0.2500 0.3500 (  5080 PWs)   bands (ev):

   -46.0796 -22.4421 -22.3677 -22.3325  -6.5999  -6.0862  -5.9438  -5.0970
    -5.0679  -5.0228  -4.9193  -4.8778   3.2727   6.4501   6.6711   6.8958
     7.3825   8.0116   8.9201   9.0854   9.5674   9.7541  13.4202  13.7152
    14.0215  14.8984

          k = 0.1500 0.2500 0.4500 (  5077 PWs)   bands (ev):

   -46.0794 -22.4416 -22.3781 -22.3321  -6.5392  -6.0789  -5.9030  -5.0958
    -5.0582  -5.0198  -4.9132  -4.8761   3.1874   6.2562   6.6374   6.8263
     7.2918   8.1096   8.7319   9.1733   9.5052   9.7339  13.4311  13.8948
    14.2197  14.9258

          k = 0.1500 0.3500 0.3500 (  5081 PWs)   bands (ev):

[...]
    -4.8984  -4.8243  -4.7037  -4.5825   3.4049   6.3168   6.3529   6.8537
     7.4328   7.4725   9.0386   9.2384   9.5220   9.6053  13.2598  13.6506
    13.7532  15.2353

          k = 0.2500 0.2500 0.3500 (  5072 PWs)   bands (ev):

   -46.1620 -22.5025 -22.4605 -22.4429  -6.6599  -6.2891  -6.1321  -4.8965
    -4.8808  -4.7918  -4.6650  -4.5708   3.2972   6.1687   6.2169   6.5488
     7.1331   7.5035   8.9896   9.3388   9.4667   9.6295  13.4024  13.7051
    13.9409  15.4280

          k = 0.2500 0.2500 0.4500 (  5073 PWs)   bands (ev):

   -46.1618 -22.5019 -22.4709 -22.4425  -6.5929  -6.2499  -6.1603  -4.8938
    -4.8690  -4.7667  -4.6369  -4.5737   3.2267   6.0493   6.0864   6.4147
     7.0365   7.5764   8.8246   9.3766   9.4071   9.6743  13.5010  13.7823
    14.1207  15.7016

          k = 0.2500 0.3500 0.3500 (  5057 PWs)   bands (ev):

   -46.1617 -22.5195 -22.4597 -22.4422  -6.6060  -6.2963  -6.0426  -4.8864
    -4.8649  -4.7689  -4.6427  -4.5345   3.3519   5.9536   5.9786   6.3869
     6.7612   7.3064   8.7489   9.3976   9.4560   9.8208  13.5069  13.9142
    14.0905  15.6702

          k = 0.2500 0.3500 0.4500 (  5063 PWs)   bands (ev):

   -46.1615 -22.5189 -22.4701 -22.4418  -6.5685  -6.2523  -6.0597  -4.8813
    -4.8506  -4.7478  -4.6161  -4.5138   3.3320   5.8056   5.9205   6.1881
     6.6458   7.3467   8.4486   9.3991   9.4667   9.9348  13.7473  13.8700
    14.2272  16.0527

          k = 0.2500 0.4500 0.4500 (  5070 PWs)   bands (ev):

   -46.1613 -22.5294 -22.4696 -22.4414  -6.5677  -6.2542  -5.9795  -4.8776
    -4.8343  -4.7341  -4.6046  -4.4772   3.3900   5.7190   5.7437   6.0875
     6.4157   7.2954   8.1144   9.4214   9.4816  10.0933  13.8189  14.0676
    14.3204  16.2810

          k = 0.3500 0.3500 0.3500 (  5055 PWs)   bands (ev):

   -46.1613 -22.5187 -22.4590 -22.4589  -6.4787  -6.3135  -6.0866  -4.8574
    -4.8572  -4.7080  -4.5736  -4.5109   3.4087   5.7110   5.7974   6.1591
     6.7743   6.8076   8.1932   9.6758   9.7191   9.8631  13.6772  14.0366
    14.0616  16.0646

          k = 0.3500 0.3500 0.4500 (  5056 PWs)   bands (ev):

   -46.1611 -22.5182 -22.4694 -22.4586  -6.4259  -6.2909  -6.1177  -4.8536
    -4.8383  -4.6641  -4.5389  -4.4938   3.4252   5.5842   5.7581   5.9771
     6.5842   6.8295   7.7571   9.7807   9.7927   9.9493  13.8811  13.9977
    14.1906  16.4741

          k = 0.3500 0.4500 0.4500 (  5051 PWs)   bands (ev):

   -46.1609 -22.5286 -22.4689 -22.4581  -6.4325  -6.3072  -6.0343  -4.8440
    -4.8286  -4.6458  -4.5070  -4.4540   3.6166   5.3994   5.5577   5.8698
     6.4058   6.7260   7.3171   9.8167   9.8954  10.0969  13.9963  14.1429
    14.2737  16.7496

          k = 0.4500 0.4500 0.4500 (  5034 PWs)   bands (ev):

   -46.1607 -22.5281 -22.4685 -22.4685  -6.3507  -6.3346  -6.0662  -4.8282
    -4.8206  -4.5891  -4.4487  -4.4401   3.7451   5.3689   5.4273   5.7601
     6.4000   6.4430   6.7120   9.9943  10.0884  10.1050  14.1614  14.2439
    14.2495  17.1552

          k =-0.0500 0.1500 0.0500 (  5074 PWs)   bands (ev):

   -46.1638 -22.4883 -22.4179 -22.4179  -7.3198  -6.3955  -6.1698  -4.8929
    -4.8924  -4.8600  -4.8002  -4.6285   4.2686   6.6781   6.6991   7.3925
     8.5843   8.5943   9.0155   9.0171   9.2851   9.3548  12.4015  13.1929
    13.2230  14.6389

          k =-0.0500 0.2500 0.0500 (  5093 PWs)   bands (ev):

   -46.1635 -22.5056 -22.4173 -22.4172  -7.1945  -6.3595  -6.1087  -4.9049
    -4.9002  -4.8590  -4.7844  -4.6693   3.9137   6.7277   6.7405   7.1601
     8.3563   8.3702   8.9722   9.0642   9.3175   9.5524  12.4034  13.5800
    13.6194  14.6441

          k =-0.0500 0.3500 0.0500 (  5090 PWs)   bands (ev):

   -46.1631 -22.5229 -22.4166 -22.4166  -7.0677  -6.3217  -6.0440  -4.9167
    -4.9081  -4.8581  -4.7680  -4.7120   3.6227   6.5265   6.8025   6.9530
     8.1664   8.1820   8.9123   9.1712   9.3545  10.0180  12.4046  13.9531
    13.9999  14.2203

          k =-0.0500 0.4500 0.0500 (  5073 PWs)   bands (ev):

   -46.1629 -22.5335 -22.4162 -22.4162  -6.9888  -6.2973  -6.0017  -4.9238
    -4.9129  -4.8575  -4.7576  -4.7396   3.4660   6.2348   6.8403   6.9758
     8.0616   8.0670   8.8731   9.2224   9.3789  10.4684  12.4037  13.5246
    14.1767  14.2384

          k = 0.1500 0.0500 0.1500 (  5079 PWs)   bands (ev):

   -46.1636 -22.4768 -22.4286 -22.4284  -7.2248  -6.3752  -6.1904  -4.9139
    -4.8928  -4.8688  -4.7820  -4.6014   3.9976   6.6585   6.9008   7.3685
     8.3578   8.3968   8.8938   9.0578   9.1545   9.6483  12.8871  12.9782
    13.0444  15.1964

          k =-0.0500 0.2500 0.1500 (  5077 PWs)   bands (ev):

   -46.1633 -22.5052 -22.4278 -22.4169  -7.1173  -6.3498  -6.0952  -4.9069
    -4.8959  -4.8666  -4.7830  -4.6465   3.7631   6.5918   6.8024   7.2817
     8.0627   8.3018   8.7110   9.0974   9.1749   9.7688  12.6943  13.5599
    13.6360  14.9688

          k = 0.2500 0.0500 0.1500 (  5077 PWs)   bands (ev):

   -46.1633 -22.4761 -22.4455 -22.4278  -7.0814  -6.3412  -6.1867  -4.9308
    -4.8911  -4.8659  -4.7623  -4.6064   3.6791   6.6255   6.9396   7.2668
     8.0169   8.3272   8.7829   9.0618   9.1763   9.8176  12.9930  13.2222
    13.3289  15.2074

          k =-0.0500 0.3500 0.1500 (  5080 PWs)   bands (ev):

   -46.1629 -22.5224 -22.4271 -22.4162  -7.0000  -6.3190  -6.0258  -4.9175
    -4.8922  -4.8659  -4.7733  -4.6747   3.5185   6.3822   6.8119   7.0773
     7.9113   8.1552   8.6861   9.1206   9.1833  10.1183  12.6870  13.9220
    14.0113  14.4586

          k = 0.3500 0.0500 0.1500 (  5080 PWs)   bands (ev):

   -46.1629 -22.4755 -22.4624 -22.4271  -6.9293  -6.3040  -6.1916  -4.9419
    -4.8858  -4.8594  -4.7403  -4.6263   3.4174   6.3543   6.9738   7.3229
     7.7340   8.2673   8.5664   9.0909   9.2552  10.0914  13.0047  13.5872
    13.6841  14.9216

          k =-0.0500 0.4500 0.1500 (  5079 PWs)   bands (ev):

   -46.1627 -22.5330 -22.4267 -22.4158  -6.9289  -6.2989  -5.9788  -4.9241
    -4.8897  -4.8655  -4.7672  -4.6927   3.3820   6.1384   6.7940   7.0720
     7.8297   8.0644   8.7121   9.1161   9.1941  10.3880  12.6773  13.9487
    14.1481  14.2441

          k = 0.4500 0.0500 0.1500 (  5079 PWs)   bands (ev):

   -46.1627 -22.4751 -22.4728 -22.4267  -6.8295  -6.2724  -6.2071  -4.9458
    -4.8822  -4.8537  -4.7112  -4.6590   3.2785   6.0953   7.0772   7.3470
     7.7054   7.9652   8.5835   9.0781   9.3005  10.3375  12.9954  13.8221
    13.9373  14.4428

          k = 0.2500 0.0500 0.2500 (  5076 PWs)   bands (ev):

   -46.1629 -22.4755 -22.4449 -22.4446  -6.9456  -6.3069  -6.1980  -4.9333
    -4.8910  -4.8478  -4.7346  -4.6097   3.4138   6.6077   6.8315   7.2308
     7.8688   7.9860   8.7336   8.9742   9.3470   9.9157  13.1973  13.2888
    13.5494  15.3296

          k =-0.0500 0.3500 0.2500 (  5080 PWs)   bands (ev):

   -46.1626 -22.5215 -22.4440 -22.4156  -6.9005  -6.2991  -5.9945  -4.9153
    -4.8824  -4.8702  -4.7758  -4.6195   3.3583   6.2342   6.8863   7.0088
     7.7370   7.8563   8.3969   8.8652   9.4434  10.0759  13.1033  13.9820
    14.0721  14.8307

          k = 0.3500 0.0500 0.2500 (  5080 PWs)   bands (ev):

   -46.1626 -22.4749 -22.4616 -22.4440  -6.8055  -6.2714  -6.2111  -4.9339
    -4.8821  -4.8223  -4.7100  -4.6267   3.1786   6.3660   6.7603   7.2256
     7.6973   8.0081   8.4627   9.0227   9.4554   9.9756  13.2338  13.6129
    13.8029  15.1738

          k =-0.0500 0.4500 0.2500 (  5084 PWs)   bands (ev):

   -46.1624 -22.5321 -22.4435 -22.4152  -6.8488  -6.2786  -5.9381  -4.9216
    -4.8778  -4.8611  -4.7798  -4.6194   3.2504   6.0109   6.8099   7.0099
     7.6785   7.8182   8.3284   8.8839   9.4555  10.1593  13.0932  14.2025
    14.2726  14.6048

          k = 0.4500 0.0500 0.2500 (  5084 PWs)   bands (ev):

   -46.1624 -22.4744 -22.4720 -22.4436  -6.7169  -6.2440  -6.2249  -4.9329
    -4.8748  -4.7971  -4.6880  -4.6559   3.0468   6.1053   6.8405   7.1220
     7.7373   8.0106   8.2771   9.0856   9.4643  10.0105  13.2286  13.8564
    13.9877  14.9757

          k = 0.3500 0.0500 0.3500 (  5079 PWs)   bands (ev):

   -46.1622 -22.4742 -22.4608 -22.4608  -6.6884  -6.2376  -6.2206  -4.9268
    -4.8667  -4.7820  -4.6799  -4.6394   2.9547   6.2899   6.4852   7.2540
     7.6160   7.9068   8.4092   8.8465   9.7224   9.7546  13.5504  13.6594
    13.9504  15.2832

          k =-0.0500 0.4500 0.3500 (  5079 PWs)   bands (ev):

   -46.1620 -22.5312 -22.4603 -22.4145  -6.7977  -6.2181  -5.8972  -4.9201
    -4.8871  -4.8521  -4.7752  -4.5517   3.1278   5.9045   6.5733   7.0467
     7.3883   7.7543   8.2301   8.6516   9.5608  10.0241  13.4765  14.2276
    14.4027  15.1872

          k = 0.4500 0.0500 0.3500 (  5079 PWs)   bands (ev):

   -46.1620 -22.4737 -22.4712 -22.4603  -6.6237  -6.2222  -6.2111  -4.9228
    -4.8523  -4.7432  -4.6687  -4.6570   2.8236   6.0619   6.4955   7.2175
     7.5495   8.0561   8.2431   8.8131   9.5585   9.8647  13.5975  13.8722
    14.0616  15.2676

          k = 0.4500 0.0500 0.4500 (  5100 PWs)   bands (ev):

   -46.1618 -22.4733 -22.4708 -22.4706  -6.5831  -6.1972  -6.1946  -4.9177
    -4.8287  -4.7041  -4.6797  -4.6479   2.6900   5.9391   6.3923   7.3221
     7.3751   8.1630   8.2497   8.6280   9.2981  10.0234  13.8652  13.8883
    14.1183  15.2420

          k =-0.1500 0.2500 0.1500 (  5084 PWs)   bands (ev):

   -46.1631 -22.5047 -22.4275 -22.4273  -7.0390  -6.3417  -6.0916  -4.9115
    -4.8927  -4.8656  -4.7670  -4.6277   3.6614   6.5826   6.6099   7.3077
     7.9273   8.0101   8.7260   9.1204   9.3066   9.7448  12.8777  13.5267
    13.6570  15.4112

          k =-0.1500 0.3500 0.1500 (  5082 PWs)   bands (ev):

   -46.1627 -22.5219 -22.4267 -22.4266  -6.9288  -6.3205  -6.0190  -4.9206
    -4.8787  -4.8596  -4.7612  -4.6469   3.4644   6.3836   6.5181   7.0715
     7.8820   7.8917   8.5929   9.1541   9.3220  10.0164  12.8365  13.8823
    14.0111  14.6823

          k =-0.1500 0.4500 0.1500 (  5084 PWs)   bands (ev):

   -46.1625 -22.5325 -22.4263 -22.4262  -6.8635  -6.3073  -5.9682  -4.9251
    -4.8731  -4.8500  -4.7601  -4.6602   3.3491   6.1345   6.4724   7.0352
     7.8255   7.9033   8.5082   9.1730   9.3209  10.1820  12.8008  14.1104
    14.2285  14.3695

          k = 0.2500 0.1500 0.2500 (  5081 PWs)   bands (ev):

   -46.1627 -22.4861 -22.4444 -22.4442  -6.8799  -6.3093  -6.1687  -4.9202
    -4.8947  -4.8400  -4.7221  -4.5985   3.4169   6.5063   6.6516   6.9550
     7.6845   7.9088   8.9196   9.0483   9.3961   9.7598  13.2800  13.4099
    13.5841  15.3450

          k =-0.1500 0.3500 0.2500 (  5080 PWs)   bands (ev):

   -46.1624 -22.5211 -22.4436 -22.4260  -6.8230  -6.3095  -6.0065  -4.9143
    -4.8837  -4.8361  -4.7421  -4.6009   3.3689   6.2209   6.4793   6.8521
     7.3784   7.8043   8.7132   9.0666   9.4938   9.8619  13.1268  13.9091
    14.0320  15.0162

          k = 0.3500 0.1500 0.2500 (  5080 PWs)   bands (ev):

   -46.1624 -22.4854 -22.4612 -22.4436  -6.7426  -6.2791  -6.1891  -4.9190
    -4.8831  -4.8108  -4.6919  -4.6057   3.2270   6.3309   6.5660   6.7548
     7.4383   7.9704   8.7740   9.1172   9.4931   9.7510  13.3068  13.6264
    13.8326  15.2648

          k =-0.1500 0.4500 0.2500 (  5077 PWs)   bands (ev):

   -46.1622 -22.5316 -22.4431 -22.4256  -6.7739  -6.3000  -5.9479  -4.9168
    -4.8771  -4.8162  -4.7474  -4.5997   3.2875   6.0216   6.3879   6.7550
     7.3565   7.7859   8.6149   9.0997   9.5048   9.8798  13.1127  14.1359
    14.2188  14.9554

          k = 0.4500 0.1500 0.2500 (  5077 PWs)   bands (ev):

   -46.1622 -22.4849 -22.4716 -22.4432  -6.6577  -6.2476  -6.2130  -4.9170
    -4.8744  -4.7844  -4.6635  -4.6297   3.1157   6.0989   6.5238   6.7231
     7.3514   8.0762   8.5993   9.1767   9.5079   9.7228  13.2974  13.8107
    14.0355  15.2876

          k = 0.3500 0.1500 0.3500 (  5081 PWs)   bands (ev):

   -46.1620 -22.4847 -22.4605 -22.4604  -6.6170  -6.2564  -6.2145  -4.9104
    -4.8646  -4.7629  -4.6576  -4.6083   3.0529   6.2766   6.3790   6.6044
     7.1290   7.9427   8.8892   8.9989   9.4654   9.7293  13.5252  13.6947
    13.9542  15.5204

          k =-0.1500 0.4500 0.3500 (  5079 PWs)   bands (ev):

   -46.1618 -22.5307 -22.4599 -22.4249  -6.7169  -6.2513  -5.9277  -4.9103
    -4.8678  -4.8090  -4.7241  -4.5371   3.2200   5.8884   6.3841   6.5402
     6.7855   7.8361   8.7197   8.9259   9.2990   9.9486  13.4833  14.1286
    14.3074  15.4980

          k = 0.4500 0.1500 0.3500 (  5079 PWs)   bands (ev):

   -46.1618 -22.4842 -22.4708 -22.4599  -6.5455  -6.2384  -6.2260  -4.9059
    -4.8492  -4.7194  -4.6403  -4.6216   2.9441   6.0545   6.4083   6.5556
     6.9863   8.0046   8.7626   9.0519   9.2423   9.8516  13.6009  13.8374
    14.0842  15.7537

          k = 0.4500 0.1500 0.4500 (  5073 PWs)   bands (ev):

   -46.1616 -22.4836 -22.4703 -22.4703  -6.4928  -6.2241  -6.2237  -4.9006
    -4.8266  -4.6679  -4.6322  -4.6253   2.8331   5.9298   6.3661   6.6313
     6.7215   8.0215   8.7464   8.9551   9.0026  10.0187  13.8347  13.8682
    14.1459  15.8457

          k =-0.2500 0.3500 0.2500 (  5072 PWs)   bands (ev):

   -46.1620 -22.5203 -22.4430 -22.4428  -6.7035  -6.3176  -6.0237  -4.8996
    -4.8796  -4.8002  -4.6896  -4.5686   3.3703   6.1173   6.1724   6.5779
     7.1584   7.3743   8.9537   9.3067   9.5455   9.6437  13.2560  13.9445
    13.9628  15.3067

          k =-0.2500 0.4500 0.2500 (  5073 PWs)   bands (ev):

   -46.1618 -22.5308 -22.4425 -22.4424  -6.6629  -6.3204  -5.9602  -4.8992
    -4.8695  -4.7778  -4.6855  -4.5611   3.3382   5.9956   6.0352   6.3855
     7.1170   7.3394   8.8223   9.3338   9.5036   9.6979  13.2874  14.1264
    14.1526  15.4439

          k = 0.3500 0.2500 0.3500 (  5057 PWs)   bands (ev):

   -46.1617 -22.5017 -22.4598 -22.4597  -6.5262  -6.2856  -6.1751  -4.8838
    -4.8611  -4.7356  -4.6169  -4.5590   3.2234   6.0465   6.1030   6.2687
     6.8801   7.3171   8.7332   9.4740   9.4846   9.7530  13.5402  13.8225
    13.9988  15.7548

          k =-0.2500 0.4500 0.3500 (  5063 PWs)   bands (ev):

   -46.1615 -22.5299 -22.4592 -22.4418  -6.5864  -6.2998  -5.9714  -4.8840
    -4.8512  -4.7507  -4.6319  -4.5117   3.3746   5.8051   5.8910   6.1864
     6.6300   7.2650   8.4867   9.4152   9.4668   9.9310  13.5846  14.0877
    14.2278  15.9130

          k = 0.4500 0.2500 0.3500 (  5063 PWs)   bands (ev):

   -46.1615 -22.5012 -22.4701 -22.4593  -6.4513  -6.2639  -6.2111  -4.8788
    -4.8445  -4.6907  -4.5905  -4.5584   3.1637   5.9628   6.0487   6.1138
     6.7174   7.3358   8.4134   9.5031   9.5146   9.8568  13.6953  13.8637
    14.1281  16.1231

          k = 0.4500 0.2500 0.4500 (  5070 PWs)   bands (ev):

   -46.1613 -22.5007 -22.4696 -22.4696  -6.3587  -6.2688  -6.2485  -4.8729
    -4.8240  -4.6350  -4.5628  -4.5572   3.1042   5.8975   6.0429   6.0468
     6.4578   7.2988   8.0191   9.5457   9.5474  10.0113  13.8812  13.9280
    14.1772  16.4587

          k =-0.3500 0.4500 0.3500 (  5056 PWs)   bands (ev):

   -46.1611 -22.5291 -22.4586 -22.4585  -6.4677  -6.3301  -6.0108  -4.8550
    -4.8410  -4.6887  -4.5469  -4.4816   3.5289   5.5721   5.6195   5.9882
     6.5612   6.7885   7.8224   9.7036   9.8176   9.9722  13.8002  14.1329
    14.2119  16.3584

          k = 0.4500 0.3500 0.4500 (  5051 PWs)   bands (ev):

   -46.1609 -22.5177 -22.4689 -22.4689  -6.3328  -6.3103  -6.1586  -4.8453
    -4.8218  -4.6080  -4.4923  -4.4843   3.4540   5.5964   5.6439   5.8528
     6.4435   6.6940   7.2395   9.9210   9.9248  10.0078  14.0385  14.0944
    14.2018  16.8622

     the Fermi energy is    10.3859 ev

!    total energy              =    -364.96108491 Ry
     Harris-Foulkes estimate   =    -364.96108491 Ry
     estimated scf accuracy    <          3.0E-11 Ry

     The total energy is the sum of the following terms:

     one-electron contribution =     -86.44855417 Ry
     hartree contribution      =      72.62134331 Ry
     xc contribution           =     -85.88433030 Ry
     ewald contribution        =    -265.25558404 Ry
     smearing contrib. (-TS)   =       0.00604029 Ry

     convergence has been achieved in   7 iterations

     Forces acting on atoms (cartesian axes, Ry/au):

     atom    1 type  1   force =     0.00000000    0.01148302    0.00000000
     atom    2 type  2   force =     0.00000000   -0.01139430    0.00000000
     atom    3 type  3   force =     0.00000000    0.00000615    0.00000000
     atom    4 type  3   force =     0.00000000   -0.00010102    0.00000000
     atom    5 type  3   force =     0.00000000    0.00000615    0.00000000

     Total force =     0.000101     Total SCF correction =     0.000008


     Computing stress (Cartesian axis) and pressure

          total   stress  (Ry/bohr**3)                   (kbar)     P=   37.48
   0.00015413   0.00000000   0.00000000         22.67      0.00      0.00
   0.00000000   0.00045615   0.00000000          0.00     67.10      0.00
   0.00000000   0.00000000   0.00015413          0.00      0.00     22.67


     bfgs converged in  20 scf cycles and  18 bfgs steps
     (criteria: energy <  1.0E-04 Ry, force <  1.0E-03 Ry/Bohr)

     End of BFGS Geometry Optimization

     Final energy   =    -364.9610849084 Ry
Begin final coordinates

ATOMIC_POSITIONS (crystal)
Pb       0.000000000   0.000000000   0.000000000    0   0   0
Ti       0.500000000   0.550000000   0.500000000    0   0   0
O        0.500000000   0.605418893   0.000000000
O        0.500000000   0.097012469   0.500000000
O        0.000000000   0.605418893   0.500000000
End final coordinates



     Writing output data file PbTiO3.save/
 
     init_run     :      9.56s CPU     10.25s WALL (       1 calls)
     electrons    :   4257.76s CPU   4463.90s WALL (      20 calls)
     update_pot   :      5.42s CPU      5.62s WALL (      19 calls)
     forces       :     50.61s CPU     61.28s WALL (      20 calls)
     stress       :    222.56s CPU    251.18s WALL (      20 calls)

     Called by init_run:
     wfcinit      :      7.17s CPU      7.25s WALL (       1 calls)
     potinit      :      0.23s CPU      0.26s WALL (       1 calls)
     hinit0       :      1.31s CPU      1.34s WALL (       1 calls)

     Called by electrons:
     c_bands      :   3388.17s CPU   3413.73s WALL (     184 calls)
     sum_band     :    688.98s CPU    772.96s WALL (     184 calls)
     v_of_rho     :     41.52s CPU     43.61s WALL (     203 calls)
     newd         :    153.81s CPU    256.78s WALL (     203 calls)
     mix_rho      :      2.58s CPU      2.81s WALL (     184 calls)

     Called by c_bands:
     init_us_2    :     92.19s CPU     92.70s WALL (   30675 calls)
     cegterg      :   3130.91s CPU   3155.08s WALL (   13800 calls)

     Called by sum_band:
     sum_band:bec :      0.24s CPU      0.25s WALL (   13800 calls)
     addusdens    :    164.86s CPU    246.24s WALL (     184 calls)

     Called by *egterg:
     h_psi        :   2602.57s CPU   2608.50s WALL (   63789 calls)
     s_psi        :     82.20s CPU     82.58s WALL (   63789 calls)
     g_psi        :     31.03s CPU     31.16s WALL (   49914 calls)
     cdiaghg      :     90.69s CPU    105.75s WALL (   62214 calls)

     Called by h_psi:
     h_psi:pot    :   2592.00s CPU   2597.49s WALL (   63789 calls)
     h_psi:calbec :     81.39s CPU     81.59s WALL (   63789 calls)
     vloc_psi     :   2427.62s CPU   2432.78s WALL (   63789 calls)
     add_vuspsi   :     82.61s CPU     82.80s WALL (   63789 calls)

     General routines
     calbec       :    121.23s CPU    121.53s WALL (   85089 calls)
     fft          :     10.49s CPU     10.53s WALL (    3119 calls)
     ffts         :      0.41s CPU      0.42s WALL (     387 calls)
     fftw         :   2595.32s CPU   2600.87s WALL ( 2416256 calls)
     interpolate  :      1.11s CPU      1.17s WALL (     203 calls)
 
     Parallel routines
 
     PWSCF        :      1h16m CPU      1h20m WALL

 
   This run was terminated on:  18:27:43  13May2020            

=------------------------------------------------------------------------------=
   JOB DONE.
=------------------------------------------------------------------------------=
