
     Program PWSCF v.6.4.1 starts on 14May2020 at  9:25:57 

     This program is part of the open-source Quantum ESPRESSO suite
     for quantum simulation of materials; please cite
         "P. Giannozzi et al., J. Phys.:Condens. Matter 21 395502 (2009);
         "P. Giannozzi et al., J. Phys.:Condens. Matter 29 465901 (2017);
          URL http://www.quantum-espresso.org", 
     in publications or presentations arising from this work. More details at
     http://www.quantum-espresso.org/quote

     Parallel version (MPI), running on     1 processors

     MPI processes distributed on     1 nodes
     Reading input from PTO_7.25_10_0.548.pw.in
Warning: card  &CELL ignored
Warning: card   CELL_DYNAMICS = 'BFGS', ignored
Warning: card  / ignored

     Current dimensions of program PWSCF are:
     Max number of different atomic species (ntypx) = 10
     Max number of k-points (npk) =  40000
     Max angular momentum in pseudopotentials (lmaxx) =  3
     Message from routine read_upf::
     Pseudo file Pb.pbe-dn-rrkjus_psl.0.2.2.UPF has been fixed on the fly.
To avoid this message in the future, permanently fix 
 your pseudo files following these instructions: 
https://gitlab.com/QEF/q-e/blob/master/upftools/how_to_fix_upf.md
     Message from routine read_upf::
     Pseudo file O.pbe-n-rrkjus_psl.0.1.UPF has been fixed on the fly.
To avoid this message in the future, permanently fix 
 your pseudo files following these instructions: 
https://gitlab.com/QEF/q-e/blob/master/upftools/how_to_fix_upf.md
               file Pb.pbe-dn-rrkjus_psl.0.2.2.UPF: wavefunction(s)  6S renormalized

     Subspace diagonalization in iterative solution of the eigenvalue problem:
     a serial algorithm will be used


     G-vector sticks info
     --------------------
     sticks:   dense  smooth     PW     G-vecs:    dense   smooth      PW
     Sum        3341    1353    385               145597    37073    5743



     bravais-lattice index     =            1
     lattice parameter (alat)  =       7.2500  a.u.
     unit-cell volume          =     381.0781 (a.u.)^3
     number of atoms/cell      =            5
     number of atomic types    =            3
     number of electrons       =        44.00
     number of Kohn-Sham states=           26
     kinetic-energy cutoff     =      80.0000  Ry
     charge density cutoff     =     800.0000  Ry
     convergence threshold     =      1.0E-08
     mixing beta               =       0.7000
     number of iterations used =            8  plain     mixing
     Exchange-correlation      = PBE ( 1  4  3  4 0 0)
     nstep                     =           50


     celldm(1)=   7.250000  celldm(2)=   0.000000  celldm(3)=   0.000000
     celldm(4)=   0.000000  celldm(5)=   0.000000  celldm(6)=   0.000000

     crystal axes: (cart. coord. in units of alat)
               a(1) = (   1.000000   0.000000   0.000000 )  
               a(2) = (   0.000000   1.000000   0.000000 )  
               a(3) = (   0.000000   0.000000   1.000000 )  

     reciprocal axes: (cart. coord. in units 2 pi/alat)
               b(1) = (  1.000000  0.000000  0.000000 )  
               b(2) = (  0.000000  1.000000  0.000000 )  
               b(3) = (  0.000000  0.000000  1.000000 )  


     PseudoPot. # 1 for Pb read from file:
     ./Pb.pbe-dn-rrkjus_psl.0.2.2.UPF
     MD5 check sum: 7afc420059c37d6888fc09c0f121e83f
     Pseudo is Ultrasoft + core correction, Zval = 14.0
     Generated using "atomic" code by A. Dal Corso v.5.0.2 svn rev. 9415
     Using radial grid of 1281 points,  6 beta functions with: 
                l(1) =   0
                l(2) =   0
                l(3) =   1
                l(4) =   1
                l(5) =   2
                l(6) =   2
     Q(r) pseudized with 0 coefficients 


     PseudoPot. # 2 for Ti read from file:
     ./Ti.pbe-sp-van_ak.UPF
     MD5 check sum: 8e4df49b7f0d34bbd5052bf3f5ea0213
     Pseudo is Ultrasoft, Zval = 12.0
     Generated by new atomic code, or converted to UPF format
     Using radial grid of  851 points,  6 beta functions with: 
                l(1) =   0
                l(2) =   0
                l(3) =   1
                l(4) =   1
                l(5) =   2
                l(6) =   2
     Q(r) pseudized with  8 coefficients,  rinner =    1.000   1.000   1.000
                                                       1.000   1.000

     PseudoPot. # 3 for O  read from file:
     ./O.pbe-n-rrkjus_psl.0.1.UPF
     MD5 check sum: e057bbcf3229fb5d8c36c0c92f9568b4
     Pseudo is Ultrasoft + core correction, Zval =  6.0
     Generated using "atomic" code by A. Dal Corso v.5.0.2 svn rev. 9415
     Using radial grid of 1095 points,  4 beta functions with: 
                l(1) =   0
                l(2) =   0
                l(3) =   1
                l(4) =   1
     Q(r) pseudized with 0 coefficients 


     atomic species   valence    mass     pseudopotential
        Pb            14.00   207.20000     Pb( 1.00)
        Ti            12.00    47.87000     Ti( 1.00)
        O              6.00    16.00000     O ( 1.00)

      8 Sym. Ops. (no inversion) found



   Cartesian axes

     site n.     atom                  positions (alat units)
         1           Pb  tau(   1) = (   0.0000000   0.0000000   0.0000000  )
         2           Ti  tau(   2) = (   0.5000000   0.5480000   0.5000000  )
         3           O   tau(   3) = (   0.5000000   0.5000000   0.0000000  )
         4           O   tau(   4) = (   0.5000000   0.0000000   0.5000000  )
         5           O   tau(   5) = (   0.0000000   0.5000000   0.5000000  )

     number of k points=    75  Marzari-Vanderbilt smearing, width (Ry)=  0.0250
                       cart. coord. in units 2pi/alat
        k(    1) = (   0.0500000   0.0500000   0.0500000), wk =   0.0160000
        k(    2) = (   0.0500000   0.0500000   0.1500000), wk =   0.0320000
        k(    3) = (   0.0500000   0.0500000   0.2500000), wk =   0.0320000
        k(    4) = (   0.0500000   0.0500000   0.3500000), wk =   0.0320000
        k(    5) = (   0.0500000   0.0500000   0.4500000), wk =   0.0320000
        k(    6) = (   0.0500000   0.1500000   0.1500000), wk =   0.0320000
        k(    7) = (   0.0500000   0.1500000   0.2500000), wk =   0.0320000
        k(    8) = (   0.0500000   0.1500000   0.3500000), wk =   0.0320000
        k(    9) = (   0.0500000   0.1500000   0.4500000), wk =   0.0320000
        k(   10) = (   0.0500000   0.2500000   0.2500000), wk =   0.0320000
        k(   11) = (   0.0500000   0.2500000   0.3500000), wk =   0.0320000
        k(   12) = (   0.0500000   0.2500000   0.4500000), wk =   0.0320000
        k(   13) = (   0.0500000   0.3500000   0.3500000), wk =   0.0320000
        k(   14) = (   0.0500000   0.3500000   0.4500000), wk =   0.0320000
        k(   15) = (   0.0500000   0.4500000   0.4500000), wk =   0.0320000
        k(   16) = (   0.1500000   0.1500000   0.1500000), wk =   0.0160000
        k(   17) = (   0.1500000   0.1500000   0.2500000), wk =   0.0320000
        k(   18) = (   0.1500000   0.1500000   0.3500000), wk =   0.0320000
        k(   19) = (   0.1500000   0.1500000   0.4500000), wk =   0.0320000
        k(   20) = (   0.1500000   0.2500000   0.2500000), wk =   0.0320000
        k(   21) = (   0.1500000   0.2500000   0.3500000), wk =   0.0320000
        k(   22) = (   0.1500000   0.2500000   0.4500000), wk =   0.0320000
        k(   23) = (   0.1500000   0.3500000   0.3500000), wk =   0.0320000
        k(   24) = (   0.1500000   0.3500000   0.4500000), wk =   0.0320000
        k(   25) = (   0.1500000   0.4500000   0.4500000), wk =   0.0320000
        k(   26) = (   0.2500000   0.2500000   0.2500000), wk =   0.0160000
        k(   27) = (   0.2500000   0.2500000   0.3500000), wk =   0.0320000
        k(   28) = (   0.2500000   0.2500000   0.4500000), wk =   0.0320000
        k(   29) = (   0.2500000   0.3500000   0.3500000), wk =   0.0320000
        k(   30) = (   0.2500000   0.3500000   0.4500000), wk =   0.0320000
        k(   31) = (   0.2500000   0.4500000   0.4500000), wk =   0.0320000
        k(   32) = (   0.3500000   0.3500000   0.3500000), wk =   0.0160000
        k(   33) = (   0.3500000   0.3500000   0.4500000), wk =   0.0320000
        k(   34) = (   0.3500000   0.4500000   0.4500000), wk =   0.0320000
        k(   35) = (   0.4500000   0.4500000   0.4500000), wk =   0.0160000
        k(   36) = (  -0.0500000   0.1500000   0.0500000), wk =   0.0160000
        k(   37) = (  -0.0500000   0.2500000   0.0500000), wk =   0.0160000
        k(   38) = (  -0.0500000   0.3500000   0.0500000), wk =   0.0160000
        k(   39) = (  -0.0500000   0.4500000   0.0500000), wk =   0.0160000
        k(   40) = (   0.1500000   0.0500000   0.1500000), wk =   0.0160000
        k(   41) = (  -0.0500000   0.2500000   0.1500000), wk =   0.0320000
        k(   42) = (   0.2500000   0.0500000   0.1500000), wk =   0.0320000
        k(   43) = (  -0.0500000   0.3500000   0.1500000), wk =   0.0320000
        k(   44) = (   0.3500000   0.0500000   0.1500000), wk =   0.0320000
        k(   45) = (  -0.0500000   0.4500000   0.1500000), wk =   0.0320000
        k(   46) = (   0.4500000   0.0500000   0.1500000), wk =   0.0320000
        k(   47) = (   0.2500000   0.0500000   0.2500000), wk =   0.0160000
        k(   48) = (  -0.0500000   0.3500000   0.2500000), wk =   0.0320000
        k(   49) = (   0.3500000   0.0500000   0.2500000), wk =   0.0320000
        k(   50) = (  -0.0500000   0.4500000   0.2500000), wk =   0.0320000
        k(   51) = (   0.4500000   0.0500000   0.2500000), wk =   0.0320000
        k(   52) = (   0.3500000   0.0500000   0.3500000), wk =   0.0160000
        k(   53) = (  -0.0500000   0.4500000   0.3500000), wk =   0.0320000
        k(   54) = (   0.4500000   0.0500000   0.3500000), wk =   0.0320000
        k(   55) = (   0.4500000   0.0500000   0.4500000), wk =   0.0160000
        k(   56) = (  -0.1500000   0.2500000   0.1500000), wk =   0.0160000
        k(   57) = (  -0.1500000   0.3500000   0.1500000), wk =   0.0160000
        k(   58) = (  -0.1500000   0.4500000   0.1500000), wk =   0.0160000
        k(   59) = (   0.2500000   0.1500000   0.2500000), wk =   0.0160000
        k(   60) = (  -0.1500000   0.3500000   0.2500000), wk =   0.0320000
        k(   61) = (   0.3500000   0.1500000   0.2500000), wk =   0.0320000
        k(   62) = (  -0.1500000   0.4500000   0.2500000), wk =   0.0320000
        k(   63) = (   0.4500000   0.1500000   0.2500000), wk =   0.0320000
        k(   64) = (   0.3500000   0.1500000   0.3500000), wk =   0.0160000
        k(   65) = (  -0.1500000   0.4500000   0.3500000), wk =   0.0320000
        k(   66) = (   0.4500000   0.1500000   0.3500000), wk =   0.0320000
        k(   67) = (   0.4500000   0.1500000   0.4500000), wk =   0.0160000
        k(   68) = (  -0.2500000   0.3500000   0.2500000), wk =   0.0160000
        k(   69) = (  -0.2500000   0.4500000   0.2500000), wk =   0.0160000
        k(   70) = (   0.3500000   0.2500000   0.3500000), wk =   0.0160000
        k(   71) = (  -0.2500000   0.4500000   0.3500000), wk =   0.0320000
        k(   72) = (   0.4500000   0.2500000   0.3500000), wk =   0.0320000
        k(   73) = (   0.4500000   0.2500000   0.4500000), wk =   0.0160000
        k(   74) = (  -0.3500000   0.4500000   0.3500000), wk =   0.0160000
        k(   75) = (   0.4500000   0.3500000   0.4500000), wk =   0.0160000

     Dense  grid:   145597 G-vectors     FFT dimensions: (  72,  72,  72)

     Smooth grid:    37073 G-vectors     FFT dimensions: (  45,  45,  45)

     Estimated max dynamical RAM per process >     691.69 MB

     Check: negative core charge=   -0.000006

     Initial potential from superposition of free atoms

     starting charge   42.99760, renormalised to   44.00000
     Starting wfcs are   31 randomized atomic wfcs

     total cpu time spent up to now is       15.2 secs

     Self-consistent Calculation

     iteration #  1     ecut=    80.00 Ry     beta= 0.70
     Davidson diagonalization with overlap
     ethr =  1.00E-02,  avg # of iterations =  2.0

     total cpu time spent up to now is       44.1 secs

     total energy              =    -364.40774129 Ry
     Harris-Foulkes estimate   =    -365.26083487 Ry
     estimated scf accuracy    <       1.07513840 Ry

     iteration #  2     ecut=    80.00 Ry     beta= 0.70
     Davidson diagonalization with overlap
     ethr =  2.44E-03,  avg # of iterations =  4.1

     total cpu time spent up to now is       85.3 secs

     total energy              =    -363.98566035 Ry
     Harris-Foulkes estimate   =    -365.48209819 Ry
     estimated scf accuracy    <       4.25301460 Ry

     iteration #  3     ecut=    80.00 Ry     beta= 0.70
     Davidson diagonalization with overlap
     ethr =  2.44E-03,  avg # of iterations =  4.3

     total cpu time spent up to now is      124.6 secs

     total energy              =    -364.89504274 Ry
     Harris-Foulkes estimate   =    -365.02726662 Ry
     estimated scf accuracy    <       0.35079171 Ry

     iteration #  4     ecut=    80.00 Ry     beta= 0.70
     Davidson diagonalization with overlap
     ethr =  7.97E-04,  avg # of iterations =  4.1

     total cpu time spent up to now is      154.6 secs

     total energy              =    -364.90362385 Ry
     Harris-Foulkes estimate   =    -364.92618019 Ry
     estimated scf accuracy    <       0.06147934 Ry

     iteration #  5     ecut=    80.00 Ry     beta= 0.70
     Davidson diagonalization with overlap
     ethr =  1.40E-04,  avg # of iterations =  3.8

     total cpu time spent up to now is      191.0 secs

     total energy              =    -364.92279933 Ry
     Harris-Foulkes estimate   =    -364.92360715 Ry
     estimated scf accuracy    <       0.00368146 Ry

     iteration #  6     ecut=    80.00 Ry     beta= 0.70
     Davidson diagonalization with overlap
     ethr =  8.37E-06,  avg # of iterations =  3.5

     total cpu time spent up to now is      223.9 secs

     total energy              =    -364.92278679 Ry
     Harris-Foulkes estimate   =    -364.92340219 Ry
     estimated scf accuracy    <       0.00196017 Ry

     iteration #  7     ecut=    80.00 Ry     beta= 0.70
     Davidson diagonalization with overlap
     ethr =  4.45E-06,  avg # of iterations =  3.1

     total cpu time spent up to now is      252.2 secs

     total energy              =    -364.92300216 Ry
     Harris-Foulkes estimate   =    -364.92304333 Ry
     estimated scf accuracy    <       0.00008081 Ry

     iteration #  8     ecut=    80.00 Ry     beta= 0.70
     Davidson diagonalization with overlap
     ethr =  1.84E-07,  avg # of iterations =  3.8

     total cpu time spent up to now is      292.3 secs

     total energy              =    -364.92304426 Ry
     Harris-Foulkes estimate   =    -364.92305331 Ry
     estimated scf accuracy    <       0.00003261 Ry

     iteration #  9     ecut=    80.00 Ry     beta= 0.70
     Davidson diagonalization with overlap
     ethr =  7.41E-08,  avg # of iterations =  1.7

     total cpu time spent up to now is      318.8 secs

     total energy              =    -364.92304562 Ry
     Harris-Foulkes estimate   =    -364.92304696 Ry
     estimated scf accuracy    <       0.00000385 Ry

     iteration # 10     ecut=    80.00 Ry     beta= 0.70
     Davidson diagonalization with overlap
     ethr =  8.76E-09,  avg # of iterations =  3.0

     total cpu time spent up to now is      353.0 secs

     total energy              =    -364.92304726 Ry
     Harris-Foulkes estimate   =    -364.92304734 Ry
     estimated scf accuracy    <       0.00000042 Ry

     iteration # 11     ecut=    80.00 Ry     beta= 0.70
     Davidson diagonalization with overlap
     ethr =  9.45E-10,  avg # of iterations =  1.8

     total cpu time spent up to now is      379.1 secs

     total energy              =    -364.92304725 Ry
     Harris-Foulkes estimate   =    -364.92304729 Ry
     estimated scf accuracy    <       0.00000013 Ry

     iteration # 12     ecut=    80.00 Ry     beta= 0.70
     Davidson diagonalization with overlap
     ethr =  3.04E-10,  avg # of iterations =  2.4

     total cpu time spent up to now is      407.6 secs

     End of self-consistent calculation

          k = 0.0500 0.0500 0.0500 (  4620 PWs)   bands (ev):

   -44.0959 -20.5715 -20.4078 -20.4077  -6.1526  -4.9750  -4.8491  -3.3078
    -3.2844  -3.2839  -3.1417  -3.1323   6.2164   8.0633   8.1269   8.3631
    10.0900  10.1101  10.5273  10.7921  11.0683  11.0786  14.3125  14.8596
    14.8679  17.0164

          k = 0.0500 0.0500 0.1500 (  4607 PWs)   bands (ev):

   -44.0955 -20.5708 -20.4252 -20.4071  -6.0526  -4.9329  -4.8060  -3.3198
    -3.2967  -3.2833  -3.1801  -3.1251   5.7809   8.1279   8.2163   8.6430
     9.8919  10.0389  10.5114  10.6501  10.9010  11.0727  14.6831  14.8678
    14.9731  17.2321

          k = 0.0500 0.0500 0.2500 (  4628 PWs)   bands (ev):

   -44.0949 -20.5697 -20.4531 -20.4061  -5.8869  -4.8604  -4.7346  -3.3402
    -3.3170  -3.2821  -3.2471  -3.1118   5.2940   8.2079   8.3106   8.5758
     9.7997   9.8522  10.4421  10.5581  10.8351  11.1747  14.8673  15.2231
    15.3481  17.2113

          k = 0.0500 0.0500 0.3500 (  4609 PWs)   bands (ev):

   -44.0943 -20.5686 -20.4808 -20.4051  -5.7159  -4.7795  -4.6628  -3.3704
    -3.3403  -3.3062  -3.2807  -3.1006   4.9368   7.8450   8.4715   8.6601
     9.5225   9.6598  10.3370  10.4849  10.9298  11.6998  14.8665  15.7152
    15.8142  16.2773

          k = 0.0500 0.0500 0.4500 (  4605 PWs)   bands (ev):

   -44.0939 -20.5679 -20.4978 -20.4044  -5.6073  -4.7226  -4.6201  -3.4069
    -3.3554  -3.3277  -3.2799  -3.0949   4.7594   7.5101   8.6105   8.8773
     9.2588   9.4306  10.2845  10.4785  10.9773  12.2654  14.8488  15.4679
    16.0076  16.1343

          k = 0.0500 0.1500 0.1500 (  4618 PWs)   bands (ev):

   -44.0952 -20.5885 -20.4244 -20.4065  -5.9369  -4.8970  -4.7733  -3.3207
    -3.3135  -3.2943  -3.1688  -3.1449   5.4739   8.0837   8.1780   8.8753
     9.6700   9.8757  10.4072  10.6112  10.8700  11.1692  14.6823  15.1558
    15.2371  17.3601

          k = 0.0500 0.1500 0.2500 (  4616 PWs)   bands (ev):

   -44.0945 -20.5873 -20.4523 -20.4054  -5.7758  -4.8359  -4.7059  -3.3468
    -3.3282  -3.2935  -3.2021  -3.1305   5.0883   8.0648   8.3004   8.7253
     9.5496   9.7171  10.2609  10.6103  10.6597  11.3993  15.1369  15.2374
    15.5473  17.3199

          k = 0.0500 0.1500 0.3500 (  4611 PWs)   bands (ev):

   -44.0939 -20.5861 -20.4799 -20.4043  -5.6125  -4.7767  -4.6280  -3.3749
    -3.3428  -3.2928  -3.2337  -3.1192   4.7790   7.8082   8.4063   8.6719
     9.3017   9.5455  10.2548  10.5611  10.6398  11.7629  15.1446  15.7070
    15.9506  16.4618

          k = 0.0500 0.1500 0.4500 (  4596 PWs)   bands (ev):

   -44.0936 -20.5853 -20.4969 -20.4037  -5.5108  -4.7401  -4.5742  -3.3951
    -3.3551  -3.2923  -3.2450  -3.1167   4.6182   7.5135   8.4659   8.8607
     9.1404   9.2776  10.2858  10.6037  10.6145  12.0550  15.1204  15.9019
    15.9983  16.2354

          k = 0.0500 0.2500 0.2500 (  4600 PWs)   bands (ev):

   -44.0939 -20.6155 -20.4509 -20.4042  -5.5973  -4.7944  -4.6502  -3.3547
    -3.3328  -3.3074  -3.1627  -3.1506   4.7833   7.8992   8.3281   8.5983
     9.3413   9.4295   9.9674  10.5988  10.8683  11.6122  15.1990  15.6092
    15.8644  17.1714

          k = 0.0500 0.2500 0.3500 (  4599 PWs)   bands (ev):

   -44.0933 -20.6142 -20.4784 -20.4032  -5.4598  -4.7538  -4.5594  -3.3676
    -3.3418  -3.3087  -3.1731  -3.1227   4.5352   7.7436   8.2817   8.5204
     9.0454   9.4464   9.8572  10.4144  11.0027  11.6784  15.5676  15.7042
    16.1598  16.8025

          k = 0.0500 0.2500 0.4500 (  4609 PWs)   bands (ev):

   -44.0929 -20.6133 -20.4953 -20.4025  -5.3822  -4.7247  -4.4932  -3.3763
    -3.3536  -3.3097  -3.1609  -3.1190   4.3984   7.5121   8.2908   8.4804
     8.9557   9.3930   9.8605  10.3737  11.0500  11.6753  15.5727  15.9647
    16.3843  16.5809

          k = 0.0500 0.3500 0.3500 (  4598 PWs)   bands (ev):

   -44.0927 -20.6420 -20.4769 -20.4020  -5.3423  -4.6798  -4.4853  -3.3661
    -3.3447  -3.3171  -3.1926  -3.0535   4.3064   7.5353   7.9971   8.4795
     8.9208   9.3099   9.7255  10.3727  11.1784  11.5767  15.6497  16.0397
    16.3732  17.1728

          k = 0.0500 0.3500 0.4500 (  4594 PWs)   bands (ev):

   -44.0923 -20.6411 -20.4937 -20.4013  -5.3074  -4.6345  -4.4044  -3.3678
    -3.3522  -3.3199  -3.2003  -3.0103   4.1895   7.4431   7.7978   8.5487
     8.7118   9.4761   9.6127  10.2594  11.1306  11.5382  15.9233  16.0338
    16.5646  17.2165

          k = 0.0500 0.4500 0.4500 (  4593 PWs)   bands (ev):

   -44.0920 -20.6581 -20.4927 -20.4006  -5.2894  -4.5392  -4.3451  -3.3711
    -3.3517  -3.3247  -3.2233  -2.9455   4.0658   7.2227   7.6663   8.5048
     8.6834   9.3630   9.6870  10.2123  10.8414  11.7257  15.8996  16.3142
    16.6865  17.6298

          k = 0.1500 0.1500 0.1500 (  4626 PWs)   bands (ev):

   -44.0948 -20.5878 -20.4240 -20.4234  -5.8419  -4.8639  -4.7385  -3.3337
    -3.3211  -3.2962  -3.1578  -3.1485   5.2802   8.0065   8.0986   9.0079
     9.5257   9.7013  10.3579  10.6792  10.9138  11.0744  14.9470  15.2163
    15.2522  17.8986

          k = 0.1500 0.1500 0.2500 (  4613 PWs)   bands (ev):

   -44.0942 -20.5866 -20.4515 -20.4226  -5.6891  -4.8109  -4.6749  -3.3554
    -3.3235  -3.2937  -3.1791  -3.1298   4.9864   7.9651   8.0509   8.7570
     9.3126   9.5721  10.4030  10.6659  10.7976  11.3044  15.1736  15.3820
    15.5397  17.2435

          k = 0.1500 0.1500 0.3500 (  4608 PWs)   bands (ev):

   -44.0936 -20.5854 -20.4790 -20.4215  -5.5395  -4.7586  -4.5992  -3.3733
    -3.3136  -3.2899  -3.2096  -3.1188   4.7244   7.7882   8.0071   8.4933
     9.1617   9.6254  10.1413  10.7115  10.8060  11.6192  15.1039  15.7561
    15.9390  16.6765

          k = 0.1500 0.1500 0.4500 (  4598 PWs)   bands (ev):

   -44.0932 -20.5846 -20.4960 -20.4208  -5.4500  -4.7267  -4.5445  -3.3798
    -3.3043  -3.2863  -3.2312  -3.1182   4.5805   7.5205   7.9599   8.5122
     9.1123   9.7157   9.8795  10.7788  10.7963  11.7952  15.0241  16.0060
    16.2187  16.4052

          k = 0.1500 0.2500 0.2500 (  4608 PWs)   bands (ev):

   -44.0936 -20.6148 -20.4502 -20.4214  -5.5050  -4.7758  -4.6484  -3.3581
    -3.3363  -3.2804  -3.1417  -3.1284   4.7739   7.7626   7.8909   8.5640
     9.0061   9.4367  10.2903  10.7402  10.9177  11.4358  15.2357  15.5967
    15.8043  17.0315

          k = 0.1500 0.2500 0.3500 (  4609 PWs)   bands (ev):

   -44.0929 -20.6134 -20.4776 -20.4203  -5.3709  -4.7555  -4.5649  -3.3623
    -3.3220  -3.2711  -3.1453  -3.1037   4.5836   7.6677   7.8082   8.2167
     8.6998   9.5053  10.3821  10.5039  11.0313  11.4359  15.3726  15.7311
    16.0868  16.9926

          k = 0.1500 0.2500 0.4500 (  4599 PWs)   bands (ev):

   -44.0926 -20.6126 -20.4944 -20.4196  -5.2964  -4.7451  -4.4985  -3.3602
    -3.3082  -3.2722  -3.1340  -3.1036   4.4697   7.5031   7.7469   8.0525
     8.6384   9.6096  10.1780  10.5850  11.0637  11.3506  15.3891  15.9344
    16.3217  17.0185

          k = 0.1500 0.3500 0.3500 (  4596 PWs)   bands (ev):

   -44.0923 -20.6412 -20.4762 -20.4191  -5.2359  -4.7061  -4.5293  -3.3574
    -3.3142  -3.2468  -3.1504  -3.0360   4.4223   7.4329   7.7324   7.9679
     8.3249   9.4881  10.2372  10.5781  11.0123  11.4069  15.5297  15.9341
    16.2718  17.3439

          k = 0.1500 0.3500 0.4500 (  4604 PWs)   bands (ev):

   -44.0920 -20.6403 -20.4929 -20.4183  -5.1992  -4.6879  -4.4526  -3.3513
    -3.2882  -3.2551  -3.1545  -2.9930   4.3358   7.3911   7.6654   7.7897
     8.1116   9.5674  10.3148  10.4082  10.7533  11.4975  15.8042  15.9354
    16.4480  17.5759

          k = 0.1500 0.4500 0.4500 (  4594 PWs)   bands (ev):

   -44.0916 -20.6573 -20.4920 -20.4176  -5.1765  -4.6056  -4.4252  -3.3475
    -3.2661  -3.2285  -3.1903  -2.9263   4.2446   7.1648   7.6117   7.7799
     7.9052   9.5750  10.1525  10.3380  10.5600  11.6895  15.8866  16.1642
    16.5550  17.9348

          k = 0.2500 0.2500 0.2500 (  4602 PWs)   bands (ev):

   -44.0929 -20.6135 -20.4493 -20.4486  -5.3672  -4.7453  -4.6307  -3.3420
    -3.3376  -3.2458  -3.1168  -3.0956   4.7260   7.4918   7.6244   8.3991
     8.8099   8.9721  10.5601  10.9603  11.1051  11.1508  15.2121  15.7715
    15.7778  17.0724

          k = 0.2500 0.2500 0.3500 (  4595 PWs)   bands (ev):

   -44.0923 -20.6122 -20.4763 -20.4477  -5.2523  -4.7280  -4.5716  -3.3341
    -3.3138  -3.2045  -3.0990  -3.0736   4.6402   7.3361   7.4490   8.0038
     8.5322   8.9359  10.5725  10.8967  11.0279  11.2835  15.2925  15.8294
    16.0776  17.3049

          k = 0.2500 0.2500 0.4500 (  4598 PWs)   bands (ev):

   -44.0920 -20.6114 -20.4931 -20.4470  -5.1963  -4.7259  -4.5084  -3.3272
    -3.2970  -3.1634  -3.0912  -3.0733   4.5732   7.2204   7.4366   7.6440
     8.4803   8.9770  10.3779  10.9066  10.9673  11.3404  15.4383  15.9134
    16.3108  17.5620

          k = 0.2500 0.3500 0.3500 (  4602 PWs)   bands (ev):

   -44.0917 -20.6400 -20.4749 -20.4465  -5.0771  -4.7296  -4.5907  -3.3225
    -3.2873  -3.1557  -3.0687  -3.0020   4.6209   7.0525   7.2604   7.7705
     8.1619   8.8038  10.1208  10.9690  11.1993  11.3647  15.4766  15.9935
    16.2222  17.6833

          k = 0.2500 0.3500 0.4500 (  4596 PWs)   bands (ev):

   -44.0914 -20.6391 -20.4917 -20.4458  -5.0375  -4.7450  -4.5216  -3.3125
    -3.2618  -3.1269  -3.0579  -2.9595   4.6076   7.0552   7.1038   7.5445
     7.9447   8.8320   9.7558  10.9719  11.1851  11.4927  15.7709  15.9760
    16.3933  18.0418

          k = 0.2500 0.4500 0.4500 (  4598 PWs)   bands (ev):

   -44.0910 -20.6561 -20.4908 -20.4450  -4.9918  -4.6960  -4.5309  -3.3059
    -3.2338  -3.1014  -3.0422  -2.8896   4.5994   6.8544   7.1450   7.3736
     7.7144   8.8080   9.2558  10.9649  11.2332  11.6615  15.9560  16.1326
    16.4898  18.4016

          k = 0.3500 0.3500 0.3500 (  4602 PWs)   bands (ev):

   -44.0911 -20.6387 -20.4739 -20.4735  -4.9729  -4.7095  -4.6253  -3.2856
    -3.2686  -3.0682  -2.9885  -2.9583   4.8238   6.7453   6.8782   7.6563
     8.1466   8.1608   9.4266  11.2632  11.3599  11.5451  15.6726  16.1949
    16.2029  18.0905

          k = 0.3500 0.3500 0.4500 (  4603 PWs)   bands (ev):

   -44.0908 -20.6379 -20.4904 -20.4729  -4.9534  -4.7101  -4.5826  -3.2707
    -3.2510  -3.0054  -2.9570  -2.9185   4.9375   6.6379   6.7043   7.4686
     7.9059   8.1713   8.8972  11.3152  11.4475  11.6750  15.9528  16.1421
    16.3923  18.4938

          k = 0.3500 0.4500 0.4500 (  4605 PWs)   bands (ev):

   -44.0904 -20.6549 -20.4896 -20.4722  -4.8215  -4.7562  -4.6186  -3.2646
    -3.2271  -2.9704  -2.8991  -2.8441   5.1111   6.4487   6.6416   7.2905
     7.6971   8.1007   8.2308  11.4199  11.6370  11.6731  16.1590  16.2770
    16.4643  18.8833

          k = 0.4500 0.4500 0.4500 (  4656 PWs)   bands (ev):

   -44.0900 -20.6541 -20.4889 -20.4888  -4.8287  -4.6800  -4.6621  -3.2414
    -3.2217  -2.8908  -2.8166  -2.8101   5.6620   6.2430   6.3537   7.2187
     7.3556   7.6691   7.7850  11.6231  11.6355  11.8591  16.3644  16.4426
    16.4464  19.2680

          k =-0.0500 0.1500 0.0500 (  4607 PWs)   bands (ev):

   -44.0955 -20.5892 -20.4072 -20.4071  -6.0352  -4.9357  -4.8103  -3.3069
    -3.2986  -3.2945  -3.1749  -3.1321   5.7687   8.1011   8.1179   8.6733
     9.9116   9.9276  10.5161  10.6220  11.0989  11.1004  14.3133  15.1450
    15.1629  17.0183

          k =-0.0500 0.2500 0.0500 (  4628 PWs)   bands (ev):

   -44.0949 -20.6177 -20.4060 -20.4060  -5.8368  -4.8738  -4.7425  -3.3258
    -3.3104  -3.3052  -3.2444  -3.1184   5.2572   8.1278   8.1558   8.5131
     9.6844   9.6887  10.4677  10.7902  11.1544  11.2799  14.3144  15.5916
    15.6174  17.0218

          k =-0.0500 0.3500 0.0500 (  4609 PWs)   bands (ev):

   -44.0943 -20.6459 -20.4049 -20.4049  -5.6248  -4.8163  -4.6667  -3.3727
    -3.3244  -3.3040  -3.3020  -3.1068   4.8729   7.7708   8.1997   8.3973
     9.4838   9.5162  10.4077  11.0173  11.2122  11.8184  14.3143  16.0275
    16.0555  16.3994

          k =-0.0500 0.4500 0.0500 (  4605 PWs)   bands (ev):

   -44.0939 -20.6632 -20.4042 -20.4042  -5.4843  -4.7852  -4.6144  -3.4201
    -3.3323  -3.3247  -3.3031  -3.1008   4.6775   7.4048   8.2194   8.4323
     9.3700   9.4302  10.3684  11.0983  11.2505  12.4024  14.3109  15.5601
    16.2940  16.3297

          k = 0.1500 0.0500 0.1500 (  4618 PWs)   bands (ev):

   -44.0952 -20.5701 -20.4248 -20.4241  -5.9573  -4.8964  -4.7620  -3.3330
    -3.2972  -3.2935  -3.1765  -3.1411   5.4916   8.0670   8.2815   8.8484
     9.6866   9.8235  10.5124  10.5873  10.8730  11.1082  14.9152  14.9878
    15.0128  17.5998

          k =-0.0500 0.2500 0.1500 (  4616 PWs)   bands (ev):

   -44.0945 -20.6169 -20.4232 -20.4053  -5.7438  -4.8393  -4.7160  -3.3444
    -3.3182  -3.3076  -3.1988  -3.1363   5.0651   7.9831   8.2136   8.7254
     9.4097   9.6612  10.3286  10.6549  10.9236  11.4560  14.6791  15.5981
    15.6544  17.3730

          k = 0.2500 0.0500 0.1500 (  4616 PWs)   bands (ev):

   -44.0946 -20.5690 -20.4523 -20.4233  -5.8030  -4.8309  -4.6888  -3.3509
    -3.3122  -3.2937  -3.2131  -3.1330   5.1077   8.0704   8.3434   8.7097
     9.4855   9.5954  10.3822  10.6465  10.8865  11.2652  14.9566  15.3278
    15.4358  17.4498

          k =-0.0500 0.3500 0.1500 (  4611 PWs)   bands (ev):

   -44.0939 -20.6450 -20.4220 -20.4042  -5.5426  -4.7808  -4.6536  -3.3796
    -3.3213  -3.3150  -3.2320  -3.1249   4.7298   7.6803   8.1705   8.5834
     9.2221   9.5000  10.4323  10.6511  10.9846  11.8815  14.6687  16.0218
    16.0612  16.5958

          k = 0.3500 0.0500 0.1500 (  4611 PWs)   bands (ev):

   -44.0939 -20.5679 -20.4799 -20.4222  -5.6501  -4.7525  -4.6150  -3.3733
    -3.3228  -3.2929  -3.2578  -3.1217   4.7970   7.8345   8.3172   8.7086
     9.2461   9.5848  10.0727  10.6664  10.9514  11.7055  14.9331  15.7747
    15.8749  16.5025

          k =-0.0500 0.4500 0.1500 (  4596 PWs)   bands (ev):

   -44.0935 -20.6622 -20.4213 -20.4035  -5.4140  -4.7423  -4.6133  -3.4076
    -3.3293  -3.3153  -3.2437  -3.1220   4.5514   7.3580   8.1283   8.6257
     9.1080   9.4157  10.5260  10.6318  11.0238  12.2100  14.6512  15.9842
    16.3011  16.3560

          k = 0.4500 0.0500 0.1500 (  4596 PWs)   bands (ev):

   -44.0936 -20.5672 -20.4969 -20.4215  -5.5575  -4.6929  -4.5716  -3.3932
    -3.3297  -3.2923  -3.2792  -3.1179   4.6347   7.5212   8.3627   8.8302
     9.1718   9.4184   9.9679  10.6441  10.9906  12.0785  14.8817  15.9388
    16.0663  16.1678

          k = 0.2500 0.0500 0.2500 (  4600 PWs)   bands (ev):

   -44.0939 -20.5679 -20.4515 -20.4505  -5.6762  -4.7681  -4.6118  -3.3520
    -3.3149  -3.3051  -3.1776  -3.1631   4.8279   7.9954   8.3676   8.6236
     9.1179   9.3017  10.3230  10.6200  11.0551  11.3866  15.2351  15.3929
    15.7440  17.2173

          k =-0.0500 0.3500 0.2500 (  4599 PWs)   bands (ev):

   -44.0933 -20.6435 -20.4496 -20.4031  -5.4271  -4.7343  -4.5901  -3.3702
    -3.3345  -3.3171  -3.1729  -3.1246   4.5100   7.5940   8.2568   8.4507
     9.1239   9.3545   9.9029  10.6333  10.9662  11.7803  15.1819  16.0426
    16.1642  16.9159

          k = 0.3500 0.0500 0.2500 (  4599 PWs)   bands (ev):

   -44.0933 -20.5668 -20.4785 -20.4498  -5.5650  -4.6781  -4.5334  -3.3584
    -3.3207  -3.3079  -3.1890  -3.1503   4.5765   7.8249   8.2001   8.5087
     8.9665   9.3027  10.0186  10.6529  11.1442  11.6085  15.2627  15.7794
    16.0651  16.8378

          k =-0.0500 0.4500 0.2500 (  4609 PWs)   bands (ev):

   -44.0929 -20.6607 -20.4488 -20.4024  -5.3323  -4.6728  -4.5581  -3.3864
    -3.3338  -3.3271  -3.1640  -3.1179   4.3561   7.2971   8.1699   8.4502
     9.0348   9.3222   9.9392  10.6679  10.9686  11.8589  15.1672  16.3080
    16.3318  16.7920

          k = 0.4500 0.0500 0.2500 (  4609 PWs)   bands (ev):

   -44.0930 -20.5661 -20.4954 -20.4490  -5.5062  -4.6017  -4.4880  -3.3693
    -3.3275  -3.3101  -3.1771  -3.1537   4.4358   7.5379   8.2218   8.3853
     9.0187   9.3897   9.7331  10.7164  11.1129  11.7704  15.2364  16.0771
    16.2865  16.5972

          k = 0.3500 0.0500 0.3500 (  4598 PWs)   bands (ev):

   -44.0927 -20.5657 -20.4774 -20.4768  -5.5085  -4.5605  -4.4472  -3.3502
    -3.3268  -3.3105  -3.1996  -3.1055   4.3661   7.8378   7.8494   8.4231
     8.6063   9.3667   9.9695  10.4230  11.3786  11.5311  15.6526  15.8294
    16.2758  17.1266

          k =-0.0500 0.4500 0.3500 (  4594 PWs)   bands (ev):

   -44.0923 -20.6591 -20.4760 -20.4012  -5.2945  -4.5943  -4.4419  -3.3731
    -3.3456  -3.3255  -3.2015  -3.0093   4.1727   7.2536   7.9409   8.3829
     8.9460   9.2319   9.7238  10.3751  11.0583  11.6480  15.6375  16.3151
    16.5283  17.4002

          k = 0.4500 0.0500 0.3500 (  4594 PWs)   bands (ev):

   -44.0923 -20.5649 -20.4939 -20.4762  -5.4867  -4.4613  -4.3963  -3.3533
    -3.3271  -3.3191  -3.2089  -3.0682   4.2424   7.5340   7.8940   8.2629
     8.5717   9.5331   9.7638  10.3875  11.2104  11.7175  15.7197  16.0750
    16.4297  17.2112

          k = 0.4500 0.0500 0.4500 (  4593 PWs)   bands (ev):

   -44.0920 -20.5642 -20.4930 -20.4929  -5.4865  -4.3528  -4.3355  -3.3520
    -3.3264  -3.3220  -3.2369  -3.0094   4.1263   7.4282   7.7322   8.2889
     8.3076   9.6746   9.7783  10.1762  11.0019  11.9016  16.0523  16.0868
    16.5120  17.5728

          k =-0.1500 0.2500 0.1500 (  4613 PWs)   bands (ev):

   -44.0942 -20.6161 -20.4228 -20.4223  -5.6505  -4.8099  -4.6994  -3.3538
    -3.3316  -3.2931  -3.1678  -3.1367   4.9597   7.8938   7.9854   8.7734
     9.3734   9.5288  10.1913  10.7434  10.9744  11.3685  14.9117  15.6021
    15.6555  17.2811

          k =-0.1500 0.3500 0.1500 (  4608 PWs)   bands (ev):

   -44.0936 -20.6441 -20.4215 -20.4212  -5.4541  -4.7528  -4.6585  -3.3803
    -3.3268  -3.2803  -3.1951  -3.1258   4.6714   7.6904   7.7689   8.5664
     9.2913   9.4663  10.0851  10.7629  11.0288  11.7340  14.8370  16.0069
    16.0157  16.7569

          k =-0.1500 0.4500 0.1500 (  4598 PWs)   bands (ev):

   -44.0932 -20.6613 -20.4207 -20.4204  -5.3312  -4.7142  -4.6324  -3.3934
    -3.3236  -3.2647  -3.2162  -3.1261   4.5102   7.3663   7.6885   8.6013
     9.2617   9.3964  10.0717  10.7617  11.0620  11.9261  14.7691  16.2296
    16.2677  16.5386

          k = 0.2500 0.1500 0.2500 (  4608 PWs)   bands (ev):

   -44.0936 -20.5854 -20.4507 -20.4498  -5.5583  -4.7612  -4.6188  -3.3527
    -3.3309  -3.2796  -3.1525  -3.1319   4.8032   7.8032   7.9298   8.5656
     8.9267   9.3935  10.5304  10.6516  11.0729  11.2357  15.2929  15.5152
    15.7057  17.0306

          k =-0.1500 0.3500 0.2500 (  4609 PWs)   bands (ev):

   -44.0929 -20.6427 -20.4489 -20.4202  -5.3283  -4.7261  -4.6201  -3.3669
    -3.3311  -3.2574  -3.1425  -3.1080   4.5557   7.5136   7.7438   8.2326
     8.9075   9.4483  10.0659  10.8335  11.0239  11.5119  15.1562  15.9464
    16.0948  17.0398

          k = 0.3500 0.1500 0.2500 (  4609 PWs)   bands (ev):

   -44.0930 -20.5842 -20.4777 -20.4490  -5.4453  -4.6991  -4.5502  -3.3546
    -3.3203  -3.2583  -3.1548  -3.1234   4.6120   7.6762   7.8287   8.1482
     8.7669   9.4115  10.3484  10.6894  11.1099  11.3951  15.2577  15.7676
    16.0229  16.9909

          k =-0.1500 0.4500 0.2500 (  4599 PWs)   bands (ev):

   -44.0926 -20.6598 -20.4480 -20.4194  -5.2298  -4.6743  -4.6078  -3.3702
    -3.3253  -3.2392  -3.1437  -3.1022   4.4235   7.2858   7.5593   8.1975
     8.9094   9.5110   9.8971  10.8850  11.0358  11.4979  15.1338  16.1953
    16.3180  17.1345

          k = 0.4500 0.1500 0.2500 (  4599 PWs)   bands (ev):

   -44.0926 -20.5835 -20.4945 -20.4482  -5.3867  -4.6567  -4.4962  -3.3534
    -3.3108  -3.2408  -3.1557  -3.1272   4.4961   7.5224   7.6711   8.0412
     8.7530   9.4809  10.1428  10.7525  11.0466  11.4741  15.2403  15.9887
    16.2708  17.0174

          k = 0.3500 0.1500 0.3500 (  4596 PWs)   bands (ev):

   -44.0923 -20.5831 -20.4766 -20.4760  -5.3855  -4.6003  -4.4951  -3.3415
    -3.3102  -3.2337  -3.1444  -3.0873   4.4766   7.6079   7.6691   7.8984
     8.2908   9.4137  10.4578  10.5195  10.9827  11.5334  15.5133  15.8379
    16.2022  17.3121

          k =-0.1500 0.4500 0.3500 (  4604 PWs)   bands (ev):

   -44.0920 -20.6583 -20.4753 -20.4183  -5.1821  -4.6334  -4.5128  -3.3553
    -3.3030  -3.2243  -3.1688  -2.9915   4.3170   7.1946   7.6541   7.8235
     8.3042   9.5169  10.0669  10.6612  10.7693  11.5276  15.5822  16.1723
    16.4328  17.6605

          k = 0.4500 0.1500 0.3500 (  4604 PWs)   bands (ev):

   -44.0920 -20.5823 -20.4931 -20.4754  -5.3645  -4.5307  -4.4481  -3.3359
    -3.2931  -3.2212  -3.1558  -3.0518   4.3858   7.5000   7.6032   7.6831
     8.1779   9.4625  10.3090  10.5748  10.7377  11.6914  15.6511  15.9844
    16.3760  17.5654

          k = 0.4500 0.1500 0.4500 (  4594 PWs)   bands (ev):

   -44.0916 -20.5816 -20.4922 -20.4921  -5.3658  -4.4327  -4.4170  -3.3288
    -3.2608  -3.2079  -3.1872  -2.9922   4.3070   7.4116   7.5695   7.6250
     7.8209   9.4976  10.3135  10.4410  10.4781  11.8933  15.9585  16.0176
    16.4740  17.8978

          k =-0.2500 0.3500 0.2500 (  4595 PWs)   bands (ev):

   -44.0923 -20.6413 -20.4479 -20.4474  -5.1838  -4.7140  -4.6431  -3.3430
    -3.3175  -3.1990  -3.0941  -3.0689   4.6073   7.2066   7.5159   7.9233
     8.7668   8.8487  10.3536  11.1111  11.1142  11.1675  15.2219  15.9330
    16.0964  17.3243

          k =-0.2500 0.4500 0.2500 (  4598 PWs)   bands (ev):

   -44.0920 -20.6584 -20.4471 -20.4467  -5.0841  -4.6767  -4.6511  -3.3398
    -3.3053  -3.1454  -3.1015  -3.0557   4.5187   7.0445   7.3520   7.7493
     8.7544   8.8652  10.1484  11.0257  11.1421  11.2287  15.3067  16.0981
    16.3304  17.6327

          k = 0.3500 0.2500 0.3500 (  4602 PWs)   bands (ev):

   -44.0917 -20.6110 -20.4752 -20.4748  -5.1815  -4.6586  -4.5640  -3.3069
    -3.2955  -3.1414  -3.0504  -3.0469   4.6582   7.1465   7.1468   7.8316
     8.1838   8.7117  10.1793  11.0030  11.0370  11.5383  15.4696  15.9572
    16.1924  17.6704

          k =-0.2500 0.4500 0.3500 (  4596 PWs)   bands (ev):

   -44.0914 -20.6570 -20.4741 -20.4457  -5.0014  -4.6892  -4.6057  -3.3165
    -3.2675  -3.1123  -3.0647  -2.9561   4.5827   6.8595   7.3012   7.4233
     8.1083   8.7879   9.7268  10.9529  11.2391  11.4776  15.6557  16.1162
    16.3939  18.0648

          k = 0.4500 0.2500 0.3500 (  4596 PWs)   bands (ev):

   -44.0914 -20.6102 -20.4917 -20.4742  -5.1619  -4.6273  -4.5198  -3.2981
    -3.2737  -3.0880  -3.0505  -3.0138   4.6456   6.9830   7.1374   7.5326
     8.0709   8.7051   9.8016  11.0249  11.0444  11.6795  15.7175  15.9861
    16.3673  18.0325

          k = 0.4500 0.2500 0.4500 (  4598 PWs)   bands (ev):

   -44.0910 -20.6095 -20.4909 -20.4909  -5.1660  -4.5388  -4.5243  -3.2880
    -3.2478  -3.0494  -3.0368  -2.9584   4.6644   6.9555   6.9713   7.4119
     7.7810   8.6759   9.3455  11.0573  11.0607  11.8799  15.9828  16.0602
    16.4536  18.3801

          k =-0.3500 0.4500 0.3500 (  4603 PWs)   bands (ev):

   -44.0907 -20.6557 -20.4730 -20.4728  -4.8486  -4.7311  -4.6603  -3.2805
    -3.2447  -3.0259  -2.9466  -2.9028   4.8976   6.5254   6.8848   7.3442
     8.0089   8.1563   8.8798  11.3567  11.4959  11.5516  15.9041  16.2178
    16.3980  18.4953

          k = 0.4500 0.3500 0.4500 (  4605 PWs)   bands (ev):

   -44.0904 -20.6371 -20.4897 -20.4896  -4.9604  -4.6281  -4.6133  -3.2470
    -3.2435  -2.9275  -2.8952  -2.8939   5.1721   6.4945   6.4963   7.3527
     7.7823   7.9702   8.2729  11.4516  11.4598  11.8669  16.1753  16.2538
    16.4445  18.8784

     the Fermi energy is    12.1764 ev

!    total energy              =    -364.92304727 Ry
     Harris-Foulkes estimate   =    -364.92304727 Ry
     estimated scf accuracy    <          2.6E-10 Ry

     The total energy is the sum of the following terms:

     one-electron contribution =     -70.72070371 Ry
     hartree contribution      =      67.50961254 Ry
     xc contribution           =     -86.18049861 Ry
     ewald contribution        =    -275.53605491 Ry
     smearing contrib. (-TS)   =       0.00459742 Ry

     convergence has been achieved in  12 iterations

     Forces acting on atoms (cartesian axes, Ry/au):

     atom    1 type  1   force =     0.00000000    0.02337304    0.00000000
     atom    2 type  2   force =     0.00000000   -0.08186949    0.00000000
     atom    3 type  3   force =     0.00000000   -0.00388679    0.00000000
     atom    4 type  3   force =     0.00000000    0.06627004    0.00000000
     atom    5 type  3   force =     0.00000000   -0.00388679    0.00000000

     Total force =     0.105473     Total SCF correction =     0.000019


     Computing stress (Cartesian axis) and pressure

          total   stress  (Ry/bohr**3)                   (kbar)     P=  231.71
   0.00142724   0.00000000   0.00000000        209.95      0.00      0.00
   0.00000000   0.00187096   0.00000000          0.00    275.23      0.00
   0.00000000   0.00000000   0.00142724          0.00      0.00    209.95


     BFGS Geometry Optimization

     number of scf cycles    =   1
     number of bfgs steps    =   0

     energy   new            =    -364.9230472729 Ry

     new trust radius        =       0.0818694882 bohr
     new conv_thr            =       0.0000000100 Ry


ATOMIC_POSITIONS (crystal)
Pb       0.000000000   0.000000000   0.000000000    0   0   0
Ti       0.500000000   0.536707657   0.500000000
O        0.500000000   0.499463891   0.000000000
O        0.500000000   0.009140695   0.500000000
O        0.000000000   0.499463891   0.500000000



     Writing output data file PbTiO3.save/
     NEW-OLD atomic charge density approx. for the potential

     Check: negative core charge=   -0.000006

     total cpu time spent up to now is      427.1 secs

     Self-consistent Calculation

     iteration #  1     ecut=    80.00 Ry     beta= 0.70
     Davidson diagonalization with overlap
     ethr =  1.00E-06,  avg # of iterations =  5.8

     total cpu time spent up to now is      493.5 secs

     total energy              =    -364.92813427 Ry
     Harris-Foulkes estimate   =    -364.93138233 Ry
     estimated scf accuracy    <       0.00464335 Ry

     iteration #  2     ecut=    80.00 Ry     beta= 0.70
     Davidson diagonalization with overlap
     ethr =  1.06E-05,  avg # of iterations =  4.2

     total cpu time spent up to now is      533.5 secs

     total energy              =    -364.92771892 Ry
     Harris-Foulkes estimate   =    -364.93138665 Ry
     estimated scf accuracy    <       0.00807048 Ry

     iteration #  3     ecut=    80.00 Ry     beta= 0.70
     Davidson diagonalization with overlap
     ethr =  1.06E-05,  avg # of iterations =  3.6

     total cpu time spent up to now is      569.2 secs

     total energy              =    -364.92958308 Ry
     Harris-Foulkes estimate   =    -364.93006608 Ry
     estimated scf accuracy    <       0.00133745 Ry

     iteration #  4     ecut=    80.00 Ry     beta= 0.70
     Davidson diagonalization with overlap
     ethr =  3.04E-06,  avg # of iterations =  3.0

     total cpu time spent up to now is      598.8 secs

     total energy              =    -364.92979465 Ry
     Harris-Foulkes estimate   =    -364.92980278 Ry
     estimated scf accuracy    <       0.00001701 Ry

     iteration #  5     ecut=    80.00 Ry     beta= 0.70
     Davidson diagonalization with overlap
     ethr =  3.87E-08,  avg # of iterations =  3.5

     total cpu time spent up to now is      637.3 secs

     total energy              =    -364.92980305 Ry
     Harris-Foulkes estimate   =    -364.92980481 Ry
     estimated scf accuracy    <       0.00000343 Ry

     iteration #  6     ecut=    80.00 Ry     beta= 0.70
     Davidson diagonalization with overlap
     ethr =  7.79E-09,  avg # of iterations =  3.1

     total cpu time spent up to now is      671.8 secs

     total energy              =    -364.92980383 Ry
     Harris-Foulkes estimate   =    -364.92980479 Ry
     estimated scf accuracy    <       0.00000264 Ry

     iteration #  7     ecut=    80.00 Ry     beta= 0.70
     Davidson diagonalization with overlap
     ethr =  6.00E-09,  avg # of iterations =  2.7

     total cpu time spent up to now is      701.9 secs

     total energy              =    -364.92980428 Ry
     Harris-Foulkes estimate   =    -364.92980428 Ry
     estimated scf accuracy    <       0.00000001 Ry

     iteration #  8     ecut=    80.00 Ry     beta= 0.70
     Davidson diagonalization with overlap
     ethr =  3.36E-11,  avg # of iterations =  4.0

     total cpu time spent up to now is      747.7 secs

     End of self-consistent calculation

          k = 0.0500 0.0500 0.0500 (  4620 PWs)   bands (ev):

   -44.2291 -20.5949 -20.5458 -20.5457  -6.1578  -4.9489  -4.8956  -3.2793
    -3.2696  -3.2691  -3.1239  -3.1200   6.2419   8.0775   8.0992   8.3483
    10.3285  10.3465  10.5338  10.9216  11.0663  11.1575  14.2096  14.4900
    14.4906  16.8683

          k = 0.0500 0.0500 0.1500 (  4607 PWs)   bands (ev):

   -44.2287 -20.5942 -20.5630 -20.5451  -6.0541  -4.9093  -4.8514  -3.2917
    -3.2816  -3.2684  -3.1634  -3.1112   5.8073   8.1338   8.1706   8.6431
    10.1078  10.1940  10.5304  10.7808  10.8985  11.1451  14.4904  14.5892
    14.7109  16.9602

          k = 0.0500 0.0500 0.2500 (  4628 PWs)   bands (ev):

   -44.2281 -20.5939 -20.5900 -20.5441  -5.8816  -4.8424  -4.7771  -3.3145
    -3.2999  -3.2671  -3.2301  -3.0973   5.3229   8.1792   8.2966   8.5637
     9.8757   9.9370  10.4739  10.7183  10.9236  11.2343  14.4925  15.1313
    15.1734  16.9553

          k = 0.0500 0.0500 0.3500 (  4609 PWs)   bands (ev):

   -44.2275 -20.6184 -20.5920 -20.5430  -5.7026  -4.7697  -4.7009  -3.3510
    -3.3165  -3.2895  -3.2657  -3.0856   4.9704   7.8003   8.4573   8.6211
     9.5513   9.6386  10.4026  10.7294  11.0448  11.7500  14.4921  15.6312
    15.6666  16.3268

          k = 0.0500 0.0500 0.4500 (  4605 PWs)   bands (ev):

   -44.2272 -20.6352 -20.5914 -20.5424  -5.5882  -4.7203  -4.6536  -3.3899
    -3.3271  -3.3127  -3.2649  -3.0795   4.7981   7.4400   8.5912   8.8266
     9.2866   9.3766  10.3568  10.7621  11.0925  12.3181  14.4867  15.5013
    15.9316  15.9793

          k = 0.0500 0.1500 0.1500 (  4618 PWs)   bands (ev):

   -44.2284 -20.6117 -20.5623 -20.5445  -5.9446  -4.8685  -4.8190  -3.3004
    -3.2898  -3.2792  -3.1542  -3.1287   5.5066   8.0810   8.1966   8.8647
     9.8139  10.0252  10.4909  10.6686  10.8764  11.1651  14.5855  14.8258
    14.9909  17.1816

          k = 0.0500 0.1500 0.2500 (  4616 PWs)   bands (ev):

   -44.2278 -20.6107 -20.5899 -20.5434  -5.7778  -4.8144  -4.7452  -3.3267
    -3.3033  -3.2785  -3.1870  -3.1161   5.1213   8.0519   8.3115   8.7165
     9.5885   9.8016  10.3259  10.7110  10.7332  11.4070  14.8184  15.1359
    15.3724  17.2354

          k = 0.0500 0.1500 0.3500 (  4611 PWs)   bands (ev):

   -44.2272 -20.6177 -20.6091 -20.5423  -5.6088  -4.7598  -4.6624  -3.3558
    -3.3156  -3.2778  -3.2206  -3.1045   4.8142   7.7724   8.3867   8.6621
     9.3056   9.5738  10.3282  10.6953  10.7437  11.7948  14.8129  15.6309
    15.8029  16.5032

          k = 0.0500 0.1500 0.4500 (  4596 PWs)   bands (ev):

   -44.2268 -20.6343 -20.6086 -20.5417  -5.5037  -4.7236  -4.6075  -3.3775
    -3.3261  -3.2772  -3.2333  -3.1012   4.6564   7.4471   8.4385   8.8473
     9.1255   9.3012  10.3919  10.6802  10.7704  12.1042  14.7967  15.9153
    15.9518  16.0845

          k = 0.0500 0.2500 0.2500 (  4600 PWs)   bands (ev):

   -44.2272 -20.6386 -20.5887 -20.5423  -5.6142  -4.7670  -4.6814  -3.3345
    -3.3062  -3.2916  -3.1461  -3.1395   4.8246   7.9368   8.3668   8.5705
     9.3769   9.4614  10.0287  10.6147  10.9566  11.5871  15.1133  15.3279
    15.7037  17.1705

          k = 0.0500 0.2500 0.3500 (  4599 PWs)   bands (ev):

   -44.2266 -20.6373 -20.6159 -20.5412  -5.4759  -4.7202  -4.5895  -3.3465
    -3.3148  -3.2936  -3.1576  -3.1131   4.5733   7.7397   8.2639   8.5213
     9.0896   9.4405   9.8806  10.5020  11.0982  11.6806  15.2998  15.6214
    16.0284  16.8179

          k = 0.0500 0.2500 0.4500 (  4609 PWs)   bands (ev):

   -44.2262 -20.6364 -20.6327 -20.5405  -5.3995  -4.6803  -4.5271  -3.3572
    -3.3246  -3.2949  -3.1454  -3.1106   4.4356   7.4580   8.2904   8.4548
     9.0523   9.3534   9.8549  10.4965  11.1298  11.7158  15.2923  15.9087
    16.2573  16.6018

          k = 0.0500 0.3500 0.3500 (  4598 PWs)   bands (ev):

   -44.2260 -20.6648 -20.6145 -20.5401  -5.3793  -4.6271  -4.5128  -3.3432
    -3.3181  -3.3009  -3.1761  -3.0476   4.3483   7.6190   7.9043   8.5324
     8.9054   9.3273   9.7426  10.3770  11.3351  11.5179  15.5893  15.7914
    16.2618  17.1507

          k = 0.0500 0.3500 0.4500 (  4594 PWs)   bands (ev):

   -44.2256 -20.6639 -20.6312 -20.5394  -5.3459  -4.5656  -4.4398  -3.3463
    -3.3233  -3.3054  -3.1841  -3.0056   4.2258   7.4461   7.7730   8.5200
     8.7846   9.4578   9.6061  10.2995  11.2204  11.5729  15.7768  15.8886
    16.4521  17.2331

          k = 0.0500 0.4500 0.4500 (  4593 PWs)   bands (ev):

   -44.2252 -20.6807 -20.6303 -20.5387  -5.3351  -4.4599  -4.3830  -3.3477
    -3.3222  -3.3106  -3.2071  -2.9427   4.1017   7.2950   7.5853   8.5520
     8.6385   9.4293   9.6384  10.2045  10.9243  11.7744  15.8697  16.0779
    16.5910  17.6239

          k = 0.1500 0.1500 0.1500 (  4626 PWs)   bands (ev):

   -44.2280 -20.6110 -20.5619 -20.5613  -5.8448  -4.8374  -4.7845  -3.3092
    -3.3044  -3.2792  -3.1391  -3.1354   5.3099   8.0426   8.0776   9.0219
     9.6474   9.7364  10.5604  10.7170  10.8488  11.0758  14.8564  14.9789
    14.9999  17.7569

          k = 0.1500 0.1500 0.2500 (  4613 PWs)   bands (ev):

   -44.2274 -20.6100 -20.5891 -20.5605  -5.6833  -4.7926  -4.7170  -3.3349
    -3.3044  -3.2760  -3.1605  -3.1154   5.0138   7.9797   8.0492   8.7728
     9.3806   9.5811  10.4690  10.7329  10.8393  11.3032  14.9467  15.2822
    15.3718  17.2611

          k = 0.1500 0.1500 0.3500 (  4608 PWs)   bands (ev):

   -44.2268 -20.6168 -20.6085 -20.5593  -5.5239  -4.7505  -4.6361  -3.3548
    -3.2951  -3.2696  -3.1910  -3.1039   4.7524   7.7578   8.0086   8.5104
     9.1918   9.6525  10.1432  10.8103  10.8652  11.6388  14.8787  15.6840
    15.7965  16.6859

          k = 0.1500 0.1500 0.4500 (  4598 PWs)   bands (ev):

   -44.2264 -20.6334 -20.6079 -20.5586  -5.4278  -4.7247  -4.5785  -3.3627
    -3.2882  -3.2606  -3.2144  -3.1030   4.6105   7.4547   7.9574   8.5505
     9.1181   9.7000   9.9426  10.8490  10.8718  11.8235  14.8095  15.9473
    16.0755  16.4138

          k = 0.1500 0.2500 0.2500 (  4608 PWs)   bands (ev):

   -44.2268 -20.6378 -20.5879 -20.5593  -5.5147  -4.7480  -4.6844  -3.3372
    -3.3146  -3.2624  -3.1226  -3.1178   4.8117   7.8207   7.9091   8.5670
     8.9995   9.4057  10.4806  10.6801  10.9947  11.3924  15.1637  15.3866
    15.6396  17.0150

          k = 0.1500 0.2500 0.3500 (  4609 PWs)   bands (ev):

   -44.2262 -20.6366 -20.6151 -20.5582  -5.3757  -4.7288  -4.5976  -3.3419
    -3.3028  -3.2481  -3.1283  -3.0942   4.6180   7.6732   7.8343   8.1864
     8.7349   9.4666  10.3587  10.6312  11.1273  11.4126  15.2046  15.6379
    15.9448  16.9714

          k = 0.1500 0.2500 0.4500 (  4599 PWs)   bands (ev):

   -44.2258 -20.6357 -20.6319 -20.5575  -5.3000  -4.7139  -4.5322  -3.3410
    -3.2922  -3.2417  -3.1199  -3.0949   4.5032   7.4559   7.7278   8.0876
     8.6869   9.5719  10.1304  10.7097  11.1577  11.3583  15.1847  15.8843
    16.1827  17.0261

          k = 0.1500 0.3500 0.3500 (  4596 PWs)   bands (ev):

   -44.2256 -20.6641 -20.6138 -20.5570  -5.2667  -4.6571  -4.5564  -3.3346
    -3.2921  -3.2268  -3.1328  -3.0302   4.4635   7.5318   7.7320   7.9115
     8.2901   9.4404  10.3835  10.5304  11.0599  11.4328  15.4639  15.7497
    16.1455  17.3058

          k = 0.1500 0.3500 0.4500 (  4604 PWs)   bands (ev):

   -44.2252 -20.6632 -20.6304 -20.5563  -5.2315  -4.6253  -4.4861  -3.3294
    -3.2711  -3.2252  -3.1408  -2.9884   4.3716   7.4280   7.6531   7.7426
     8.1314   9.5074  10.3057  10.5090  10.7828  11.5630  15.6408  15.8531
    16.3286  17.5753

          k = 0.1500 0.4500 0.4500 (  4594 PWs)   bands (ev):

   -44.2248 -20.6800 -20.6295 -20.5556  -5.2190  -4.5306  -4.4592  -3.3241
    -3.2408  -3.2073  -3.1760  -2.9239   4.2814   7.2680   7.5470   7.7664
     7.8557   9.5160  10.2372  10.4128  10.5170  11.7612  15.8307  15.9734
    16.4547  17.9275

          k = 0.2500 0.2500 0.2500 (  4602 PWs)   bands (ev):

   -44.2262 -20.6366 -20.5870 -20.5864  -5.3628  -4.7208  -4.6723  -3.3207
    -3.3187  -3.2272  -3.0949  -3.0861   4.7575   7.5650   7.6246   8.4549
     8.7733   8.8748  10.7728  10.9548  11.0883  11.1159  15.1553  15.6059
    15.6228  17.0331

          k = 0.2500 0.2500 0.3500 (  4595 PWs)   bands (ev):

   -44.2256 -20.6354 -20.6138 -20.5855  -5.2322  -4.7203  -4.6065  -3.3152
    -3.2953  -3.1836  -3.0757  -3.0649   4.6662   7.3585   7.4967   7.9781
     8.5376   8.8550  10.6405  10.9556  11.0571  11.2689  15.2043  15.7098
    15.9401  17.2707

          k = 0.2500 0.2500 0.4500 (  4598 PWs)   bands (ev):

   -44.2252 -20.6346 -20.6305 -20.5847  -5.1672  -4.7253  -4.5413  -3.3090
    -3.2798  -3.1367  -3.0751  -3.0611   4.5968   7.2235   7.4458   7.6426
     8.5016   8.9032  10.3830  10.9864  11.0186  11.3332  15.2959  15.8520
    16.1784  17.5634

          k = 0.2500 0.3500 0.3500 (  4602 PWs)   bands (ev):

   -44.2250 -20.6628 -20.6125 -20.5843  -5.0902  -4.6918  -4.6190  -3.2994
    -3.2693  -3.1317  -3.0510  -2.9963   4.6590   7.1322   7.2535   7.7820
     8.0794   8.7224  10.1860  11.0471  11.1578  11.4323  15.4070  15.8471
    16.0876  17.6473

          k = 0.2500 0.3500 0.4500 (  4596 PWs)   bands (ev):

   -44.2246 -20.6620 -20.6292 -20.5836  -5.0497  -4.7008  -4.5526  -3.2904
    -3.2461  -3.0918  -3.0473  -2.9546   4.6405   7.0516   7.1785   7.4860
     7.9267   8.7448   9.7897  11.0758  11.1438  11.5634  15.6451  15.8858
    16.2691  18.0316

          k = 0.2500 0.4500 0.4500 (  4598 PWs)   bands (ev):

   -44.2242 -20.6788 -20.6283 -20.5828  -5.0280  -4.6266  -4.5612  -3.2825
    -3.2176  -3.0617  -3.0356  -2.8876   4.6379   6.9666   7.0992   7.3463
     7.6360   8.7252   9.3006  11.0711  11.1836  11.7453  15.8770  15.9817
    16.3804  18.3966

          k = 0.3500 0.3500 0.3500 (  4602 PWs)   bands (ev):

   -44.2244 -20.6616 -20.6115 -20.6112  -4.9501  -4.6971  -4.6583  -3.2611
    -3.2541  -3.0418  -2.9689  -2.9544   4.8541   6.8172   6.8708   7.6845
     8.0555   8.0612   9.4549  11.3568  11.4194  11.5167  15.5968  16.0642
    16.0764  18.0664

          k = 0.3500 0.3500 0.4500 (  4603 PWs)   bands (ev):

   -44.2240 -20.6608 -20.6280 -20.6106  -4.9103  -4.7178  -4.6117  -3.2501
    -3.2335  -2.9745  -2.9452  -2.9102   4.9591   6.6469   6.7690   7.4365
     7.8632   8.0726   8.9115  11.4069  11.5104  11.6432  15.8497  16.0406
    16.2728  18.4884

          k = 0.3500 0.4500 0.4500 (  4605 PWs)   bands (ev):

   -44.2236 -20.6776 -20.6272 -20.6098  -4.8359  -4.7056  -4.6465  -3.2407
    -3.2122  -2.9258  -2.8952  -2.8421   5.1510   6.5190   6.6028   7.2841
     7.6266   8.0073   8.2522  11.5192  11.6188  11.7316  16.0683  16.1530
    16.3489  18.8850

          k = 0.4500 0.4500 0.4500 (  4656 PWs)   bands (ev):

   -44.2233 -20.6768 -20.6264 -20.6264  -4.7654  -4.7041  -4.6892  -3.2163
    -3.2083  -2.8438  -2.8138  -2.8083   5.6943   6.3006   6.3393   7.1977
     7.3709   7.6219   7.6651  11.7154  11.7253  11.8108  16.2660  16.3294
    16.3349  19.2804

          k =-0.0500 0.1500 0.0500 (  4607 PWs)   bands (ev):

   -44.2287 -20.6124 -20.5452 -20.5451  -6.0462  -4.9045  -4.8583  -3.2835
    -3.2803  -3.2780  -3.1614  -3.1140   5.8012   8.1275   8.1326   8.6501
    10.0962  10.1325  10.5362  10.7342  11.0801  11.1043  14.2103  14.8169
    14.8274  16.8692

          k =-0.0500 0.2500 0.0500 (  4628 PWs)   bands (ev):

   -44.2281 -20.6406 -20.5441 -20.5440  -5.8594  -4.8323  -4.7935  -3.3095
    -3.2957  -3.2769  -3.2293  -3.0998   5.3068   8.1639   8.2238   8.5173
     9.8055   9.8326  10.4859  10.8081  11.1186  11.2715  14.2115  15.3124
    15.3299  16.8707

          k =-0.0500 0.3500 0.0500 (  4609 PWs)   bands (ev):

   -44.2275 -20.6686 -20.5430 -20.5429  -5.6634  -4.7602  -4.7216  -3.3520
    -3.3100  -3.2876  -3.2755  -3.0877   4.9446   7.7632   8.3187   8.4870
     9.5542   9.5572  10.4223  10.9855  11.1690  11.8077  14.2114  15.7839
    15.8032  16.3853

          k =-0.0500 0.4500 0.0500 (  4605 PWs)   bands (ev):

   -44.2271 -20.6857 -20.5423 -20.5423  -5.5366  -4.7164  -4.6727  -3.3954
    -3.3181  -3.3110  -3.2746  -3.0814   4.7664   7.3733   8.3803   8.5857
     9.3682   9.4157  10.3811  11.0574  11.2046  12.3811  14.2082  15.5515
    16.0687  16.0906

          k = 0.1500 0.0500 0.1500 (  4618 PWs)   bands (ev):

   -44.2284 -20.5936 -20.5626 -20.5620  -5.9538  -4.8762  -4.8070  -3.3069
    -3.2822  -3.2783  -3.1575  -3.1272   5.5144   8.0775   8.2319   8.8624
     9.8833   9.9029  10.5770  10.7136  10.8033  11.1808  14.6819  14.7328
    14.8840  17.2687

          k =-0.0500 0.2500 0.1500 (  4616 PWs)   bands (ev):

   -44.2278 -20.6398 -20.5612 -20.5434  -5.7639  -4.8028  -4.7604  -3.3261
    -3.2956  -3.2873  -3.1860  -3.1182   5.1112   8.0230   8.2686   8.7067
     9.5089   9.7788  10.3407  10.7099  10.8946  11.4350  14.5845  15.3210
    15.4311  17.2319

          k = 0.2500 0.0500 0.1500 (  4616 PWs)   bands (ev):

   -44.2278 -20.5932 -20.5893 -20.5612  -5.7901  -4.8189  -4.7319  -3.3286
    -3.2960  -3.2786  -3.1919  -3.1172   5.1292   8.0590   8.3209   8.7237
     9.5388   9.7499  10.3633  10.7252  10.8847  11.3556  14.7019  15.1628
    15.3390  17.3282

          k =-0.0500 0.3500 0.1500 (  4611 PWs)   bands (ev):

   -44.2272 -20.6677 -20.5600 -20.5423  -5.5795  -4.7330  -4.6963  -3.3578
    -3.3062  -3.2874  -3.2203  -3.1064   4.7935   7.7145   8.2621   8.6052
     9.2764   9.5588  10.4037  10.6975  10.9396  11.8544  14.5757  15.7915
    15.8572  16.5742

          k = 0.3500 0.0500 0.1500 (  4611 PWs)   bands (ev):

   -44.2272 -20.6175 -20.5913 -20.5601  -5.6259  -4.7525  -4.6542  -3.3551
    -3.3069  -3.2778  -3.2312  -3.1055   4.8209   7.7825   8.3509   8.6870
     9.2567   9.6298  10.2009  10.7145  10.9554  11.7731  14.6917  15.6467
    15.7824  16.5313

          k =-0.0500 0.4500 0.1500 (  4596 PWs)   bands (ev):

   -44.2268 -20.6848 -20.5593 -20.5416  -5.4646  -4.6789  -4.6608  -3.3828
    -3.3152  -3.2869  -3.2331  -3.1029   4.6290   7.3640   8.2526   8.7130
     9.1257   9.4053  10.4915  10.6710  10.9734  12.1803  14.5592  15.9577
    16.0784  16.1760

          k = 0.4500 0.0500 0.1500 (  4596 PWs)   bands (ev):

   -44.2268 -20.6343 -20.5907 -20.5594  -5.5251  -4.7037  -4.6061  -3.3767
    -3.3154  -3.2772  -3.2480  -3.1017   4.6619   7.4500   8.4015   8.8366
     9.1202   9.3810  10.2173  10.6895  10.9948  12.1157  14.6707  15.9393
    15.9722  16.0582

          k = 0.2500 0.0500 0.2500 (  4600 PWs)   bands (ev):

   -44.2272 -20.5927 -20.5882 -20.5879  -5.6492  -4.7686  -4.6546  -3.3332
    -3.2997  -3.2895  -3.1514  -3.1462   4.8426   7.9820   8.3652   8.6150
     9.3166   9.3424  10.1996  10.6594  11.0373  11.4919  15.0895  15.2165
    15.6654  17.2191

          k =-0.0500 0.3500 0.2500 (  4599 PWs)   bands (ev):

   -44.2266 -20.6663 -20.5874 -20.5412  -5.4629  -4.6973  -4.6133  -3.3477
    -3.3092  -3.2995  -3.1576  -3.1139   4.5621   7.6661   8.2547   8.4704
     9.1378   9.3984   9.9029  10.6052  11.0654  11.7389  15.1043  15.7926
    16.0301  16.8835

          k = 0.3500 0.0500 0.2500 (  4599 PWs)   bands (ev):

   -44.2266 -20.6161 -20.5908 -20.5868  -5.5228  -4.6941  -4.5737  -3.3428
    -3.3059  -3.2930  -3.1639  -3.1258   4.5885   7.7713   8.2326   8.5305
     9.0732   9.3739   9.9440  10.6317  11.1462  11.6568  15.1292  15.6473
    15.9987  16.8495

          k =-0.0500 0.4500 0.2500 (  4609 PWs)   bands (ev):

   -44.2262 -20.6833 -20.5866 -20.5405  -5.3805  -4.6255  -4.5806  -3.3614
    -3.3141  -3.3043  -3.1463  -3.1104   4.4168   7.3509   8.2092   8.4530
     9.0902   9.3258   9.9023  10.6272  11.0697  11.8162  15.0916  16.0801
    16.2196  16.7294

          k = 0.4500 0.0500 0.2500 (  4609 PWs)   bands (ev):

   -44.2262 -20.6328 -20.5902 -20.5860  -5.4551  -4.6296  -4.5241  -3.3543
    -3.3136  -3.2949  -3.1504  -3.1276   4.4480   7.4671   8.2790   8.4094
     9.1194   9.3606   9.7688  10.6651  11.1342  11.7671  15.1196  15.9566
    16.2187  16.6211

          k = 0.3500 0.0500 0.3500 (  4598 PWs)   bands (ev):

   -44.2260 -20.6151 -20.6143 -20.5890  -5.4519  -4.5897  -4.4878  -3.3367
    -3.3117  -3.2968  -3.1791  -3.0701   4.3702   7.7843   7.8103   8.5308
     8.7981   9.3449   9.8564  10.3991  11.4095  11.4963  15.5719  15.6895
    16.2297  17.1376

          k =-0.0500 0.4500 0.3500 (  4594 PWs)   bands (ev):

   -44.2256 -20.6817 -20.6136 -20.5394  -5.3411  -4.5272  -4.4744  -3.3485
    -3.3178  -3.3103  -3.1844  -3.0053   4.2178   7.3361   7.8550   8.4423
     8.8941   9.3136   9.6985  10.3462  11.1729  11.6354  15.5849  16.0790
    16.4284  17.3487

          k = 0.4500 0.0500 0.3500 (  4594 PWs)   bands (ev):

   -44.2256 -20.6313 -20.6138 -20.5883  -5.4242  -4.4981  -4.4346  -3.3403
    -3.3129  -3.3047  -3.1877  -3.0307   4.2431   7.4747   7.8288   8.4176
     8.7628   9.4748   9.6894  10.3403  11.2121  11.6737  15.6232  15.9566
    16.3972  17.2485

          k = 0.4500 0.0500 0.4500 (  4593 PWs)   bands (ev):

   -44.2252 -20.6305 -20.6303 -20.5877  -5.4203  -4.3915  -4.3750  -3.3398
    -3.3123  -3.3086  -3.2126  -2.9705   4.1214   7.3877   7.6193   8.4833
     8.5115   9.5955   9.6799  10.1495  10.9665  11.8547  15.9449  15.9652
    16.5143  17.6083

          k =-0.1500 0.2500 0.1500 (  4613 PWs)   bands (ev):

   -44.2274 -20.6391 -20.5607 -20.5602  -5.6666  -4.7705  -4.7470  -3.3344
    -3.3073  -3.2761  -3.1560  -3.1178   5.0024   7.9689   7.9986   8.7647
     9.4109   9.5688  10.3315  10.7926  10.9189  11.3353  14.8283  15.3906
    15.4289  17.2795

          k =-0.1500 0.3500 0.1500 (  4608 PWs)   bands (ev):

   -44.2268 -20.6668 -20.5595 -20.5591  -5.4881  -4.7080  -4.6957  -3.3578
    -3.3007  -3.2658  -3.1848  -3.1063   4.7302   7.7170   7.8762   8.5264
     9.2715   9.5728  10.1166  10.8173  10.9718  11.6981  14.7560  15.8181
    15.8233  16.7286

          k =-0.1500 0.4500 0.1500 (  4598 PWs)   bands (ev):

   -44.2264 -20.6839 -20.5587 -20.5584  -5.3795  -4.6831  -4.6430  -3.3684
    -3.2964  -3.2525  -3.2072  -3.1057   4.5817   7.3718   7.8114   8.5738
     9.2150   9.5370  10.0417  10.8178  11.0028  11.8934  14.6859  16.0651
    16.0913  16.4888

          k = 0.2500 0.1500 0.2500 (  4608 PWs)   bands (ev):

   -44.2268 -20.6089 -20.5882 -20.5875  -5.5380  -4.7542  -4.6612  -3.3348
    -3.3126  -3.2616  -3.1283  -3.1186   4.8236   7.8358   7.9318   8.5746
     8.9781   9.3787  10.6248  10.6277  11.0601  11.2883  15.1738  15.3421
    15.6038  17.0174

          k =-0.1500 0.3500 0.2500 (  4609 PWs)   bands (ev):

   -44.2262 -20.6655 -20.5866 -20.5582  -5.3591  -4.6954  -4.6378  -3.3438
    -3.3067  -3.2422  -3.1265  -3.0964   4.6058   7.6063   7.7831   8.1855
     8.8553   9.4242  10.2197  10.7851  11.1036  11.4645  15.0928  15.7542
    15.9449  16.9989

          k = 0.3500 0.1500 0.2500 (  4609 PWs)   bands (ev):

   -44.2262 -20.6155 -20.6074 -20.5866  -5.4087  -4.7084  -4.5887  -3.3386
    -3.3024  -3.2421  -3.1313  -3.1040   4.6285   7.6780   7.8447   8.1573
     8.7924   9.4133  10.3419  10.7301  11.1477  11.3936  15.1354  15.6574
    15.9191  16.9757

          k =-0.1500 0.4500 0.2500 (  4599 PWs)   bands (ev):

   -44.2258 -20.6824 -20.5859 -20.5574  -5.2750  -4.6595  -4.5951  -3.3452
    -3.2993  -3.2278  -3.1231  -3.0949   4.4829   7.3509   7.6185   8.1504
     8.8406   9.4955  10.0271  10.8447  11.1045  11.4605  15.0609  16.0152
    16.1733  17.0991

          k = 0.4500 0.1500 0.2500 (  4599 PWs)   bands (ev):

   -44.2258 -20.6320 -20.6069 -20.5859  -5.3404  -4.6768  -4.5310  -3.3381
    -3.2934  -3.2282  -3.1263  -3.1079   4.5120   7.4625   7.7013   8.0824
     8.7679   9.5020  10.1199  10.7884  11.1084  11.4411  15.1069  15.9140
    16.1580  17.0322

          k = 0.3500 0.1500 0.3500 (  4596 PWs)   bands (ev):

   -44.2256 -20.6146 -20.6136 -20.6059  -5.3312  -4.6248  -4.5332  -3.3281
    -3.2909  -3.2209  -3.1303  -3.0521   4.4836   7.6265   7.6959   7.8961
     8.2960   9.4044  10.4778  10.5157  11.0146  11.4985  15.4467  15.7017
    16.1205  17.2959

          k =-0.1500 0.4500 0.3500 (  4604 PWs)   bands (ev):

   -44.2252 -20.6809 -20.6129 -20.5563  -5.2254  -4.5752  -4.5355  -3.3311
    -3.2774  -3.2121  -3.1467  -2.9879   4.3628   7.3042   7.6656   7.7574
     8.2341   9.4720  10.2046  10.6254  10.7855  11.5774  15.5205  15.9829
    16.3173  17.6259

          k = 0.4500 0.1500 0.3500 (  4604 PWs)   bands (ev):

   -44.2252 -20.6305 -20.6133 -20.6054  -5.3029  -4.5630  -4.4833  -3.3231
    -3.2735  -3.2108  -3.1414  -3.0137   4.3882   7.4601   7.6575   7.7054
     8.1872   9.4544  10.3010  10.5873  10.7535  11.6497  15.5514  15.8888
    16.2986  17.5800

          k = 0.4500 0.1500 0.4500 (  4594 PWs)   bands (ev):

   -44.2248 -20.6297 -20.6296 -20.6049  -5.2996  -4.4671  -4.4522  -3.3165
    -3.2399  -3.1984  -3.1739  -2.9522   4.3019   7.3757   7.5706   7.7230
     7.8148   9.4821  10.2887  10.4473  10.4849  11.8462  15.8598  15.9034
    16.4245  17.9164

          k =-0.2500 0.3500 0.2500 (  4595 PWs)   bands (ev):

   -44.2256 -20.6641 -20.5857 -20.5852  -5.2049  -4.6841  -4.6628  -3.3192
    -3.2963  -3.1816  -3.0735  -3.0625   4.6525   7.2942   7.5278   7.9178
     8.6934   8.7764  10.5308  11.0735  11.0815  11.2266  15.1675  15.7738
    15.9404  17.2799

          k =-0.2500 0.4500 0.2500 (  4598 PWs)   bands (ev):

   -44.2252 -20.6811 -20.5849 -20.5845  -5.1244  -4.6916  -4.6055  -3.3147
    -3.2827  -3.1298  -3.0808  -3.0513   4.5739   7.1355   7.3741   7.7023
     8.6684   8.8074  10.2973  11.0197  11.1066  11.2903  15.2360  15.9454
    16.1808  17.6028

          k = 0.3500 0.2500 0.3500 (  4602 PWs)   bands (ev):

   -44.2250 -20.6342 -20.6127 -20.6124  -5.1345  -4.6727  -4.5992  -3.2932
    -3.2726  -3.1261  -3.0428  -3.0155   4.6731   7.1678   7.2170   7.8234
     8.0980   8.6695  10.2042  11.0751  11.0805  11.5037  15.4021  15.8235
    16.0799  17.6441

          k =-0.2500 0.4500 0.3500 (  4596 PWs)   bands (ev):

   -44.2246 -20.6797 -20.6117 -20.5835  -5.0383  -4.6488  -4.6109  -3.2922
    -3.2481  -3.0842  -3.0516  -2.9531   4.6293   6.9535   7.2769   7.4111
     8.0205   8.7120   9.7874  11.0413  11.1892  11.5582  15.5853  15.9620
    16.2655  18.0395

          k = 0.4500 0.2500 0.3500 (  4596 PWs)   bands (ev):

   -44.2246 -20.6334 -20.6292 -20.6117  -5.1038  -4.6523  -4.5515  -3.2847
    -3.2508  -3.0769  -3.0428  -2.9781   4.6533   7.0200   7.2077   7.4824
     8.0039   8.6710   9.8040  11.0775  11.1096  11.6398  15.6129  15.8938
    16.2596  18.0304

          k = 0.4500 0.2500 0.4500 (  4598 PWs)   bands (ev):

   -44.2242 -20.6327 -20.6284 -20.6283  -5.1002  -4.5686  -4.5553  -3.2753
    -3.2231  -3.0431  -3.0312  -2.9167   4.6597   7.0204   7.0471   7.3769
     7.6655   8.6538   9.3274  11.1143  11.1145  11.8326  15.8823  15.9466
    16.3705  18.3923

          k =-0.3500 0.4500 0.3500 (  4603 PWs)   bands (ev):

   -44.2240 -20.6784 -20.6107 -20.6104  -4.8732  -4.6921  -4.6703  -3.2553
    -3.2296  -2.9864  -2.9399  -2.9006   4.9428   6.5946   6.8435   7.3621
     7.9399   8.0462   8.9135  11.4574  11.4999  11.5867  15.8262  16.0833
    16.2705  18.4810

          k = 0.4500 0.3500 0.4500 (  4605 PWs)   bands (ev):

   -44.2236 -20.6600 -20.6272 -20.6272  -4.8958  -4.6543  -4.6416  -3.2339
    -3.2185  -2.9048  -2.8910  -2.8693   5.1722   6.5369   6.5599   7.3223
     7.6632   7.9380   8.2644  11.5339  11.5389  11.8192  16.0717  16.1394
    16.3449  18.8881

     the Fermi energy is    12.1644 ev

!    total energy              =    -364.92980429 Ry
     Harris-Foulkes estimate   =    -364.92980430 Ry
     estimated scf accuracy    <          4.5E-09 Ry

     The total energy is the sum of the following terms:

     one-electron contribution =     -69.88557678 Ry
     hartree contribution      =      67.06059494 Ry
     xc contribution           =     -86.14837492 Ry
     ewald contribution        =    -275.96146200 Ry
     smearing contrib. (-TS)   =       0.00501447 Ry

     convergence has been achieved in   8 iterations

     Forces acting on atoms (cartesian axes, Ry/au):

     atom    1 type  1   force =     0.00000000    0.01865428    0.00000000
     atom    2 type  2   force =     0.00000000   -0.03149830    0.00000000
     atom    3 type  3   force =     0.00000000    0.00227355    0.00000000
     atom    4 type  3   force =     0.00000000    0.00829692    0.00000000
     atom    5 type  3   force =     0.00000000    0.00227355    0.00000000

     Total force =     0.032731     Total SCF correction =     0.000087


     Computing stress (Cartesian axis) and pressure

          total   stress  (Ry/bohr**3)                   (kbar)     P=  209.64
   0.00137997   0.00000000   0.00000000        203.00      0.00      0.00
   0.00000000   0.00151540   0.00000000          0.00    222.92      0.00
   0.00000000   0.00000000   0.00137997          0.00      0.00    203.00


     number of scf cycles    =   2
     number of bfgs steps    =   1

     energy   old            =    -364.9230472729 Ry
     energy   new            =    -364.9298042914 Ry

     CASE: energy  _new < energy  _old

     new trust radius        =       0.0465819209 bohr
     new conv_thr            =       0.0000000031 Ry


ATOMIC_POSITIONS (crystal)
Pb       0.000000000   0.000000000   0.000000000    0   0   0
Ti       0.500000000   0.530282564   0.500000000
O        0.500000000   0.499880520   0.000000000
O        0.500000000   0.011048217   0.500000000
O        0.000000000   0.499880520   0.500000000



     Writing output data file PbTiO3.save/
     NEW-OLD atomic charge density approx. for the potential

     Check: negative core charge=   -0.000006

     total cpu time spent up to now is      767.2 secs

     Self-consistent Calculation

     iteration #  1     ecut=    80.00 Ry     beta= 0.70
     Davidson diagonalization with overlap
     ethr =  1.00E-06,  avg # of iterations =  4.9

     total cpu time spent up to now is      827.1 secs

     total energy              =    -364.93079764 Ry
     Harris-Foulkes estimate   =    -364.93121096 Ry
     estimated scf accuracy    <       0.00062384 Ry

     iteration #  2     ecut=    80.00 Ry     beta= 0.70
     Davidson diagonalization with overlap
     ethr =  1.42E-06,  avg # of iterations =  3.6

     total cpu time spent up to now is      862.3 secs

     total energy              =    -364.93078935 Ry
     Harris-Foulkes estimate   =    -364.93113170 Ry
     estimated scf accuracy    <       0.00066782 Ry

     iteration #  3     ecut=    80.00 Ry     beta= 0.70
     Davidson diagonalization with overlap
     ethr =  1.42E-06,  avg # of iterations =  3.4

     total cpu time spent up to now is      894.6 secs

     total energy              =    -364.93095187 Ry
     Harris-Foulkes estimate   =    -364.93103775 Ry
     estimated scf accuracy    <       0.00023511 Ry

     iteration #  4     ecut=    80.00 Ry     beta= 0.70
     Davidson diagonalization with overlap
     ethr =  5.34E-07,  avg # of iterations =  3.0

     total cpu time spent up to now is      923.5 secs

     total energy              =    -364.93099124 Ry
     Harris-Foulkes estimate   =    -364.93099212 Ry
     estimated scf accuracy    <       0.00000209 Ry

     iteration #  5     ecut=    80.00 Ry     beta= 0.70
     Davidson diagonalization with overlap
     ethr =  4.75E-09,  avg # of iterations =  4.0

     total cpu time spent up to now is      965.2 secs

     total energy              =    -364.93099286 Ry
     Harris-Foulkes estimate   =    -364.93099297 Ry
     estimated scf accuracy    <       0.00000027 Ry

     iteration #  6     ecut=    80.00 Ry     beta= 0.70
     Davidson diagonalization with overlap
     ethr =  6.08E-10,  avg # of iterations =  3.1

     total cpu time spent up to now is      998.8 secs

     total energy              =    -364.93099289 Ry
     Harris-Foulkes estimate   =    -364.93099299 Ry
     estimated scf accuracy    <       0.00000026 Ry

     iteration #  7     ecut=    80.00 Ry     beta= 0.70
     Davidson diagonalization with overlap
     ethr =  5.88E-10,  avg # of iterations =  3.0

     total cpu time spent up to now is     1029.7 secs

     total energy              =    -364.93099294 Ry
     Harris-Foulkes estimate   =    -364.93099294 Ry
     estimated scf accuracy    <       0.00000002 Ry

     iteration #  8     ecut=    80.00 Ry     beta= 0.70
     Davidson diagonalization with overlap
     ethr =  3.69E-11,  avg # of iterations =  2.5

     total cpu time spent up to now is     1061.0 secs

     End of self-consistent calculation

          k = 0.0500 0.0500 0.0500 (  4620 PWs)   bands (ev):

   -44.2661 -20.6065 -20.5837 -20.5836  -6.1583  -4.9406  -4.9121  -3.2708
    -3.2653  -3.2648  -3.1189  -3.1166   6.2501   8.0813   8.0915   8.3463
    10.3928  10.4063  10.5488  10.9851  11.0853  11.1884  14.1819  14.3545
    14.3567  16.8220

          k = 0.0500 0.0500 0.1500 (  4607 PWs)   bands (ev):

   -44.2657 -20.6061 -20.6007 -20.5830  -6.0533  -4.9019  -4.8669  -3.2834
    -3.2770  -3.2641  -3.1587  -3.1073   5.8154   8.1329   8.1616   8.6458
    10.1656  10.2236  10.5484  10.8237  10.9323  11.1627  14.3560  14.5636
    14.6327  16.8710

          k = 0.0500 0.0500 0.2500 (  4628 PWs)   bands (ev):

   -44.2651 -20.6288 -20.6047 -20.5819  -5.8788  -4.8370  -4.7905  -3.3075
    -3.2942  -3.2627  -3.2252  -3.0931   5.3313   8.1741   8.2916   8.5594
     9.8843   9.9427  10.4953  10.7714  10.9779  11.2534  14.3574  15.1083
    15.1340  16.8688

          k = 0.0500 0.0500 0.3500 (  4609 PWs)   bands (ev):

   -44.2645 -20.6563 -20.6037 -20.5809  -5.6975  -4.7667  -4.7116  -3.3455
    -3.3095  -3.2842  -3.2613  -3.0811   4.9804   7.7854   8.4482   8.6056
     9.5552   9.6188  10.4270  10.8273  11.0827  11.7678  14.3572  15.6120
    15.6367  16.3478

          k = 0.0500 0.0500 0.4500 (  4605 PWs)   bands (ev):

   -44.2642 -20.6731 -20.6030 -20.5802  -5.5817  -4.7191  -4.6623  -3.3850
    -3.3189  -3.3080  -3.2605  -3.0748   4.8100   7.4118   8.5771   8.8046
     9.2898   9.3617  10.3826  10.8708  11.1280  12.3347  14.3532  15.5188
    15.9167  15.9464

          k = 0.0500 0.1500 0.1500 (  4618 PWs)   bands (ev):

   -44.2654 -20.6233 -20.6002 -20.5823  -5.9460  -4.8606  -4.8333  -3.2955
    -3.2819  -3.2746  -3.1502  -3.1240   5.5166   8.0802   8.2030   8.8675
     9.8518  10.0608  10.5169  10.6994  10.8945  11.1591  14.5595  14.7124
    14.9186  17.1246

          k = 0.0500 0.1500 0.2500 (  4616 PWs)   bands (ev):

   -44.2648 -20.6282 -20.6218 -20.5813  -5.7776  -4.8099  -4.7551  -3.3211
    -3.2954  -3.2742  -3.1827  -3.1120   5.1311   8.0493   8.3139   8.7180
     9.5840   9.8214  10.3374  10.7414  10.7887  11.4074  14.7040  15.1152
    15.3307  17.1901

          k = 0.0500 0.1500 0.3500 (  4611 PWs)   bands (ev):

   -44.2642 -20.6554 -20.6209 -20.5802  -5.6072  -4.7552  -4.6708  -3.3503
    -3.3074  -3.2734  -3.2169  -3.1000   4.8244   7.7592   8.3765   8.6586
     9.2964   9.5785  10.3482  10.7242  10.8079  11.8055  14.6977  15.6166
    15.7710  16.5234

          k = 0.0500 0.1500 0.4500 (  4596 PWs)   bands (ev):

   -44.2638 -20.6722 -20.6202 -20.5795  -5.5017  -4.7174  -4.6159  -3.3724
    -3.3173  -3.2728  -3.2300  -3.0964   4.6675   7.4198   8.4234   8.8411
     9.1123   9.3121  10.4213  10.7020  10.8367  12.1205  14.6822  15.9112
    15.9642  16.0531

          k = 0.0500 0.2500 0.2500 (  4600 PWs)   bands (ev):

   -44.2642 -20.6501 -20.6265 -20.5802  -5.6192  -4.7639  -4.6850  -3.3286
    -3.2987  -3.2865  -3.1415  -3.1361   4.8367   7.9487   8.3806   8.5645
     9.3784   9.4657  10.0457  10.6277  10.9883  11.5759  15.0905  15.2391
    15.6671  17.1710

          k = 0.0500 0.2500 0.3500 (  4599 PWs)   bands (ev):

   -44.2636 -20.6542 -20.6484 -20.5791  -5.4812  -4.7109  -4.5951  -3.3404
    -3.3067  -3.2891  -3.1532  -3.1104   4.5839   7.7345   8.2602   8.5162
     9.1013   9.4356   9.8851  10.5365  11.1234  11.6840  15.2077  15.6093
    16.0032  16.8292

          k = 0.0500 0.2500 0.4500 (  4609 PWs)   bands (ev):

   -44.2632 -20.6707 -20.6479 -20.5784  -5.4058  -4.6649  -4.5353  -3.3517
    -3.3158  -3.2905  -3.1408  -3.1083   4.4456   7.4337   8.2903   8.4424
     9.0827   9.3399   9.8524  10.5390  11.1436  11.7358  15.1990  15.9036
    16.2336  16.6181

          k = 0.0500 0.3500 0.3500 (  4598 PWs)   bands (ev):

   -44.2630 -20.6762 -20.6524 -20.5779  -5.3914  -4.6145  -4.5148  -3.3365
    -3.3106  -3.2955  -3.1712  -3.0462   4.3598   7.6526   7.8648   8.5444
     8.9017   9.3311   9.7499  10.3754  11.3836  11.4951  15.5788  15.7164
    16.2466  17.1445

          k = 0.0500 0.3500 0.4500 (  4594 PWs)   bands (ev):

   -44.2626 -20.6753 -20.6691 -20.5773  -5.3586  -4.5430  -4.4479  -3.3400
    -3.3146  -3.3011  -3.1792  -3.0046   4.2349   7.4353   7.7705   8.5065
     8.8088   9.4484   9.6129  10.3064  11.2243  11.6008  15.6991  15.8889
    16.4380  17.2450

          k = 0.0500 0.4500 0.4500 (  4593 PWs)   bands (ev):

   -44.2622 -20.6921 -20.6682 -20.5765  -5.3501  -4.4341  -4.3918  -3.3408
    -3.3134  -3.3063  -3.2024  -2.9423   4.1103   7.3164   7.5548   8.5631
     8.6243   9.4644   9.6230  10.1888  10.9352  11.7952  15.8759  16.0062
    16.5857  17.6180

          k = 0.1500 0.1500 0.1500 (  4626 PWs)   bands (ev):

   -44.2650 -20.6227 -20.5997 -20.5992  -5.8446  -4.8284  -4.8001  -3.3022
    -3.2996  -3.2739  -3.1337  -3.1317   5.3189   8.0530   8.0724   9.0332
     9.6847   9.7364  10.6392  10.7347  10.8255  11.0604  14.8345  14.9088
    14.9255  17.7142

          k = 0.1500 0.1500 0.2500 (  4613 PWs)   bands (ev):

   -44.2644 -20.6275 -20.6211 -20.5983  -5.6805  -4.7868  -4.7298  -3.3290
    -3.2989  -3.2705  -3.1550  -3.1111   5.0218   7.9837   8.0480   8.7805
     9.3967   9.5793  10.4659  10.7730  10.8593  11.2967  14.8773  15.2624
    15.3312  17.2685

          k = 0.1500 0.1500 0.3500 (  4608 PWs)   bands (ev):

   -44.2638 -20.6546 -20.6203 -20.5972  -5.5183  -4.7475  -4.6462  -3.3495
    -3.2900  -3.2635  -3.1852  -3.0993   4.7604   7.7475   8.0013   8.5146
     9.2014   9.6515  10.1403  10.8407  10.8897  11.6443  14.8086  15.6755
    15.7631  16.6942

          k = 0.1500 0.1500 0.4500 (  4598 PWs)   bands (ev):

   -44.2634 -20.6713 -20.6196 -20.5965  -5.4206  -4.7229  -4.5872  -3.3578
    -3.2836  -3.2535  -3.2087  -3.0982   4.6191   7.4276   7.9496   8.5607
     9.1221   9.6830   9.9633  10.8679  10.9019  11.8340  14.7389  15.9433
    16.0420  16.4271

          k = 0.1500 0.2500 0.2500 (  4608 PWs)   bands (ev):

   -44.2638 -20.6493 -20.6258 -20.5972  -5.5172  -4.7436  -4.6903  -3.3311
    -3.3084  -3.2568  -3.1173  -3.1145   4.8227   7.8355   7.9184   8.5718
     8.9934   9.3889  10.5391  10.6597  11.0231  11.3711  15.1478  15.3280
    15.5997  17.0114

          k = 0.1500 0.2500 0.3500 (  4609 PWs)   bands (ev):

   -44.2632 -20.6534 -20.6477 -20.5961  -5.3773  -4.7202  -4.6052  -3.3359
    -3.2974  -3.2409  -3.1232  -3.0914   4.6276   7.6726   7.8378   8.1748
     8.7509   9.4455  10.3385  10.6805  11.1527  11.4083  15.1495  15.6258
    15.9124  16.9699

          k = 0.1500 0.2500 0.4500 (  4599 PWs)   bands (ev):

   -44.2628 -20.6699 -20.6472 -20.5954  -5.3018  -4.7020  -4.5407  -3.3354
    -3.2877  -3.2323  -3.1156  -3.0923   4.5122   7.4334   7.7162   8.0991
     8.7088   9.5494  10.1098  10.7529  11.1656  11.3809  15.1197  15.8837
    16.1513  17.0381

          k = 0.1500 0.3500 0.3500 (  4596 PWs)   bands (ev):

   -44.2626 -20.6755 -20.6517 -20.5949  -5.2764  -4.6452  -4.5586  -3.3279
    -3.2860  -3.2206  -3.1273  -3.0287   4.4748   7.5665   7.7302   7.8865
[...]

   -44.2970 -20.6618 -20.6596 -20.6591  -5.3573  -4.7029  -4.7021  -3.3063
    -3.3063  -3.2140  -3.0793  -3.0786   4.7779   7.6204   7.6236   8.5782
     8.7066   8.7169  10.9110  10.9264  11.0094  11.1452  15.1671  15.5409
    15.5428  17.0164

          k = 0.2500 0.2500 0.3500 (  4595 PWs)   bands (ev):

   -44.2964 -20.6868 -20.6604 -20.6582  -5.2172  -4.7140  -4.6259  -3.3031
    -3.2824  -3.1696  -3.0586  -3.0570   4.6817   7.3660   7.5264   7.9410
     8.5849   8.7188  10.6095  11.0325  11.0609  11.2775  15.1739  15.6863
    15.8825  17.2646

          k = 0.2500 0.2500 0.4500 (  4598 PWs)   bands (ev):

   -44.2960 -20.7036 -20.6596 -20.6574  -5.1481  -4.7212  -4.5572  -3.2975
    -3.2675  -3.1207  -3.0636  -3.0477   4.6096   7.2103   7.3933   7.6735
     8.5529   8.7749  10.3459  11.0229  11.0698  11.3421  15.2216  15.8689
    16.1274  17.5918

          k = 0.2500 0.3500 0.3500 (  4602 PWs)   bands (ev):

   -44.2958 -20.6876 -20.6854 -20.6571  -5.0986  -4.6778  -4.6204  -3.2841
    -3.2572  -3.1163  -3.0362  -2.9909   4.6811   7.1749   7.2555   7.8041
     7.9939   8.6271  10.1867  11.0985  11.1330  11.4809  15.3953  15.7799
    16.0423  17.6437

          k = 0.2500 0.3500 0.4500 (  4596 PWs)   bands (ev):

   -44.2954 -20.7022 -20.6868 -20.6563  -5.0599  -4.6663  -4.5670  -3.2759
    -3.2352  -3.0696  -3.0357  -2.9500   4.6566   7.0248   7.2422   7.4245
     7.9238   8.6349   9.7877  11.1081  11.1486  11.6105  15.5769  15.8768
    16.2290  18.0468

          k = 0.2500 0.4500 0.4500 (  4598 PWs)   bands (ev):

   -44.2950 -20.7035 -20.7014 -20.6556  -5.0504  -4.5835  -4.5706  -3.2671
    -3.2064  -3.0374  -3.0251  -2.8854   4.6554   7.0394   7.0709   7.3334
     7.5501   8.6295   9.3074  11.1414  11.1473  11.7955  15.8525  15.9108
    16.3574  18.4180

          k = 0.3500 0.3500 0.3500 (  4602 PWs)   bands (ev):

   -44.2952 -20.6865 -20.6843 -20.6841  -4.9378  -4.6783  -4.6777  -3.2446
    -3.2444  -3.0267  -2.9502  -2.9495   4.8709   6.8564   6.8582   7.7435
     7.9417   7.9430   9.4492  11.4170  11.4197  11.5290  15.5824  16.0194
    16.0205  18.0755

          k = 0.3500 0.3500 0.4500 (  4603 PWs)   bands (ev):

   -44.2948 -20.7010 -20.6856 -20.6835  -4.8864  -4.7112  -4.6254  -3.2382
    -3.2197  -2.9605  -2.9314  -2.8972   4.9685   6.6330   6.8063   7.3970
     7.8551   7.9353   8.9076  11.4624  11.5232  11.6409  15.8105  16.0157
    16.2270  18.5086

          k = 0.3500 0.4500 0.4500 (  4605 PWs)   bands (ev):

   -44.2945 -20.7023 -20.7002 -20.6828  -4.8482  -4.6663  -4.6555  -3.2252
    -3.2015  -2.8979  -2.8861  -2.8384   5.1692   6.5436   6.5784   7.2934
     7.5452   7.8985   8.2532  11.5799  11.5838  11.7824  16.0385  16.1014
    16.3109  18.9215

          k = 0.4500 0.4500 0.4500 (  4656 PWs)   bands (ev):

   -44.2941 -20.7015 -20.6995 -20.6994  -4.7317  -4.7025  -4.7021  -3.1994
    -3.1992  -2.8152  -2.8039  -2.8034   5.7066   6.3155   6.3158   7.1970
     7.3784   7.5471   7.5487  11.7681  11.7697  11.7818  16.2336  16.2900
    16.2907  19.3259

          k =-0.0500 0.1500 0.0500 (  4607 PWs)   bands (ev):

   -44.2995 -20.6376 -20.6176 -20.6175  -6.0509  -4.8992  -4.8877  -3.2733
    -3.2698  -3.2583  -3.1524  -3.1028   5.8279   8.1396   8.1578   8.6478
    10.2127  10.2537  10.5787  10.8281  11.0977  11.1226  14.1596  14.5553
    14.5580  16.7678

          k =-0.0500 0.2500 0.0500 (  4628 PWs)   bands (ev):

   -44.2989 -20.6656 -20.6165 -20.6165  -5.8736  -4.8367  -4.8068  -3.2985
    -3.2858  -3.2569  -3.2189  -3.0879   5.3419   8.1929   8.2791   8.5408
     9.8793   9.9271  10.5234  10.8233  11.1007  11.2588  14.1610  15.1083
    15.1172  16.7676

          k =-0.0500 0.3500 0.0500 (  4609 PWs)   bands (ev):

   -44.2983 -20.6933 -20.6155 -20.6154  -5.6901  -4.7680  -4.7233  -3.3378
    -3.3002  -3.2774  -3.2555  -3.0750   4.9915   7.7687   8.4234   8.5769
     9.5627   9.5814  10.4562  10.9630  11.1379  11.7878  14.1610  15.6212
    15.6304  16.3767

          k =-0.0500 0.4500 0.0500 (  4605 PWs)   bands (ev):

   -44.2979 -20.7102 -20.6148 -20.6148  -5.5731  -4.7215  -4.6705  -3.3780
    -3.3085  -3.3016  -3.2546  -3.0681   4.8229   7.3653   8.5385   8.7582
     9.3023   9.3561  10.4134  11.0267  11.1699  12.3535  14.1578  15.5480
    15.9283  15.9354

          k = 0.1500 0.0500 0.1500 (  4618 PWs)   bands (ev):

   -44.2991 -20.6353 -20.6346 -20.6189  -5.9470  -4.8665  -4.8434  -3.2893
    -3.2721  -3.2673  -3.1453  -3.1174   5.5313   8.0856   8.2184   8.8779
     9.8903  10.0864  10.5427  10.7474  10.9263  11.1464  14.5250  14.5777
    14.8405  17.0637

          k =-0.0500 0.2500 0.1500 (  4616 PWs)   bands (ev):

   -44.2985 -20.6648 -20.6338 -20.6158  -5.7760  -4.8134  -4.7645  -3.3136
    -3.2848  -3.2682  -3.1770  -3.1067   5.1433   8.0542   8.3167   8.7250
     9.5530   9.8403  10.3435  10.7718  10.8825  11.4018  14.5435  15.1143
    15.3100  17.1320

          k = 0.2500 0.0500 0.1500 (  4616 PWs)   bands (ev):

   -44.2985 -20.6628 -20.6338 -20.6178  -5.7767  -4.8142  -4.7638  -3.3140
    -3.2846  -3.2681  -3.1774  -3.1060   5.1438   8.0553   8.3206   8.7239
     9.5535   9.8408  10.3437  10.7720  10.8816  11.4007  14.5483  15.1062
    15.3060  17.1366

          k =-0.0500 0.3500 0.1500 (  4611 PWs)   bands (ev):

   -44.2979 -20.6924 -20.6326 -20.6148  -5.6044  -4.7548  -4.6792  -3.3428
    -3.2962  -3.2676  -3.2121  -3.0940   4.8355   7.7404   8.3524   8.6548
     9.2740   9.5866  10.3698  10.7515  10.9033  11.8173  14.5363  15.6254
    15.7656  16.5581

          k = 0.3500 0.0500 0.1500 (  4611 PWs)   bands (ev):

   -44.2979 -20.6903 -20.6326 -20.6167  -5.6056  -4.7557  -4.6786  -3.3432
    -3.2956  -3.2674  -3.2125  -3.0935   4.8366   7.7423   8.3574   8.6587
     9.2709   9.5904  10.3603  10.7514  10.9063  11.8146  14.5413  15.6181
    15.7619  16.5594

          k =-0.0500 0.4500 0.1500 (  4596 PWs)   bands (ev):

   -44.2976 -20.7093 -20.6319 -20.6141  -5.4990  -4.7133  -4.6237  -3.3654
    -3.3055  -3.2670  -3.2259  -3.0897   4.6789   7.3729   8.3870   8.8288
     9.0907   9.3443  10.4527  10.7226  10.9302  12.1404  14.5204  15.9302
    15.9922  16.0501

          k = 0.4500 0.0500 0.1500 (  4596 PWs)   bands (ev):

   -44.2976 -20.7073 -20.6319 -20.6161  -5.5004  -4.7143  -4.6232  -3.3657
    -3.3048  -3.2668  -3.2264  -3.0893   4.6804   7.3753   8.3956   8.8358
     9.0885   9.3403  10.4401  10.7234  10.9339  12.1379  14.5254  15.9241
    15.9957  16.0437

          k = 0.2500 0.0500 0.2500 (  4600 PWs)   bands (ev):

   -44.2979 -20.6620 -20.6609 -20.6167  -5.6255  -4.7703  -4.6852  -3.3211
    -3.2894  -3.2782  -3.1338  -3.1332   4.8521   7.9668   8.4135   8.5588
     9.3613   9.4621  10.0681  10.6441  11.0272  11.5544  15.0541  15.1460
    15.6485  17.1807

          k =-0.0500 0.3500 0.2500 (  4599 PWs)   bands (ev):

   -44.2973 -20.6910 -20.6602 -20.6136  -5.4873  -4.7054  -4.5996  -3.3323
    -3.2959  -3.2827  -3.1474  -3.1064   4.5954   7.7193   8.2609   8.5024
     9.1214   9.4226   9.8930  10.5733  11.1411  11.6910  15.0836  15.6235
    16.0063  16.8542

          k = 0.3500 0.0500 0.2500 (  4599 PWs)   bands (ev):

   -44.2973 -20.6889 -20.6602 -20.6156  -5.4889  -4.7055  -4.5992  -3.3327
    -3.2954  -3.2821  -3.1471  -3.1069   4.5960   7.7237   8.2593   8.5055
     9.1186   9.4240   9.8927  10.5755  11.1444  11.6878  15.0843  15.6161
    16.0037  16.8550

          k =-0.0500 0.4500 0.2500 (  4609 PWs)   bands (ev):

   -44.2970 -20.7078 -20.6594 -20.6130  -5.4137  -4.6498  -4.5427  -3.3442
    -3.3040  -3.2847  -3.1347  -3.1049   4.4550   7.3876   8.2837   8.4267
     9.1298   9.3249   9.8513  10.5829  11.1439  11.7653  15.0732  15.9295
    16.2394  16.6545

          k = 0.4500 0.0500 0.2500 (  4609 PWs)   bands (ev):

   -44.2970 -20.7058 -20.6594 -20.6149  -5.4155  -4.6500  -4.5424  -3.3444
    -3.3032  -3.2844  -3.1342  -3.1058   4.4557   7.3920   8.2900   8.4214
     9.1331   9.3267   9.8442  10.5859  11.1466  11.7628  15.0742  15.9232
    16.2372  16.6531

          k = 0.3500 0.0500 0.3500 (  4598 PWs)   bands (ev):

   -44.2967 -20.6878 -20.6872 -20.6145  -5.4080  -4.6071  -4.5121  -3.3280
    -3.3010  -3.2862  -3.1641  -3.0451   4.3721   7.7184   7.7899   8.5585
     8.9009   9.3373   9.7685  10.3525  11.4265  11.4714  15.5660  15.6438
    16.2661  17.1358

          k =-0.0500 0.4500 0.3500 (  4594 PWs)   bands (ev):

   -44.2964 -20.7063 -20.6866 -20.6118  -5.3747  -4.5203  -4.4543  -3.3317
    -3.3033  -3.2948  -3.1726  -3.0029   4.2429   7.4005   7.7751   8.4841
     8.8535   9.4247   9.6502  10.2848  11.2076  11.6404  15.5974  15.9271
    16.4640  17.2747

          k = 0.4500 0.0500 0.3500 (  4594 PWs)   bands (ev):

   -44.2964 -20.7043 -20.6866 -20.6138  -5.3768  -4.5200  -4.4542  -3.3319
    -3.3023  -3.2938  -3.1722  -3.0042   4.2428   7.4069   7.7732   8.4837
     8.8510   9.4341   9.6462  10.2854  11.2085  11.6416  15.5989  15.9208
    16.4591  17.2725

          k = 0.4500 0.0500 0.4500 (  4593 PWs)   bands (ev):

   -44.2960 -20.7034 -20.7033 -20.6131  -5.3713  -4.4112  -4.3951  -3.3318
    -3.3016  -3.2980  -3.1960  -2.9427   4.1170   7.3411   7.5103   8.5748
     8.6118   9.5447   9.6157  10.1170  10.9332  11.8203  15.9120  15.9245
    16.6221  17.6023

          k =-0.1500 0.2500 0.1500 (  4613 PWs)   bands (ev):

   -44.2982 -20.6640 -20.6333 -20.6328  -5.6754  -4.7852  -4.7455  -3.3212
    -3.2916  -3.2630  -3.1476  -3.1055   5.0318   8.0106   8.0312   8.7915
     9.4148   9.5629  10.4375  10.8238  10.8898  11.2778  14.8000  15.2761
    15.2962  17.2790

          k =-0.1500 0.3500 0.1500 (  4608 PWs)   bands (ev):

   -44.2976 -20.6915 -20.6321 -20.6317  -5.5101  -4.7476  -4.6577  -3.3424
    -3.2833  -3.2552  -3.1773  -3.0932   4.7691   7.7392   7.9710   8.5251
     9.2218   9.6286  10.1263  10.8705  10.9247  11.6479  14.7275  15.7200
    15.7265  16.7104

          k =-0.1500 0.4500 0.1500 (  4598 PWs)   bands (ev):

   -44.2972 -20.7084 -20.6313 -20.6310  -5.4111  -4.7236  -4.5957  -3.3513
    -3.2775  -3.2441  -3.2006  -3.0916   4.6279   7.3812   7.9234   8.5818
     9.1386   9.6430   9.9774  10.8832  10.9438  11.8474  14.6530  15.9863
    16.0135  16.4559

          k = 0.2500 0.1500 0.2500 (  4608 PWs)   bands (ev):

   -44.2976 -20.6612 -20.6602 -20.6339  -5.5198  -4.7498  -4.6915  -3.3230
    -3.3003  -3.2489  -3.1115  -3.1084   4.8368   7.8550   7.9398   8.5803
     8.9821   9.3541  10.5936  10.6413  11.0581  11.3299  15.1418  15.2729
    15.5747  17.0094

          k =-0.1500 0.3500 0.2500 (  4609 PWs)   bands (ev):

   -44.2970 -20.6902 -20.6594 -20.6308  -5.3785  -4.7143  -4.6128  -3.3281
    -3.2904  -3.2311  -3.1163  -3.0872   4.6381   7.6735   7.8272   8.1614
     8.7874   9.3984  10.3013  10.7423  11.1672  11.4086  15.0842  15.6444
    15.8990  16.9747

          k = 0.3500 0.1500 0.2500 (  4609 PWs)   bands (ev):

   -44.2970 -20.6881 -20.6594 -20.6328  -5.3797  -4.7148  -4.6122  -3.3281
    -3.2903  -3.2307  -3.1161  -3.0875   4.6386   7.6768   7.8303   8.1591
     8.7850   9.3998  10.3057  10.7403  11.1694  11.4049  15.0863  15.6390
    15.8974  16.9751

          k =-0.1500 0.4500 0.2500 (  4599 PWs)   bands (ev):

   -44.2966 -20.7070 -20.6587 -20.6300  -5.3040  -4.6903  -4.5488  -3.3282
    -3.2816  -3.2196  -3.1099  -3.0882   4.5207   7.3903   7.6897   8.1209
     8.7577   9.4945  10.0755  10.8075  11.1540  11.4214  15.0407  15.9194
    16.1382  17.0686

          k = 0.4500 0.1500 0.2500 (  4599 PWs)   bands (ev):

   -44.2966 -20.7049 -20.6587 -20.6320  -5.3055  -4.6908  -4.5482  -3.3281
    -3.2814  -3.2191  -3.1095  -3.0891   4.5215   7.3944   7.6939   8.1177
     8.7544   9.4977  10.0779  10.8056  11.1544  11.4198  15.0426  15.9138
    16.1368  17.0680

          k = 0.3500 0.1500 0.3500 (  4596 PWs)   bands (ev):

   -44.2964 -20.6870 -20.6864 -20.6316  -5.2893  -4.6387  -4.5560  -3.3191
    -3.2779  -3.2113  -3.1190  -3.0272   4.4871   7.6134   7.7418   7.8352
     8.2690   9.3893  10.4458  10.5084  11.0535  11.4744  15.4419  15.6568
    16.1195  17.2908

          k =-0.1500 0.4500 0.3500 (  4604 PWs)   bands (ev):

   -44.2960 -20.7055 -20.6859 -20.6289  -5.2547  -4.5821  -4.5014  -3.3147
    -3.2606  -3.2028  -3.1304  -2.9853   4.3886   7.3926   7.6736   7.7023
     8.1660   9.4378  10.2627  10.5876  10.7821  11.6176  15.5187  15.8721
    16.3092  17.6007

          k = 0.4500 0.1500 0.3500 (  4604 PWs)   bands (ev):

   -44.2960 -20.7035 -20.6859 -20.6309  -5.2565  -4.5821  -4.5010  -3.3145
    -3.2602  -3.2022  -3.1296  -2.9867   4.3886   7.4011   7.6720   7.6995
     8.1657   9.4386  10.2659  10.5864  10.7806  11.6199  15.5198  15.8671
    16.3071  17.6003

          k = 0.4500 0.1500 0.4500 (  4594 PWs)   bands (ev):

   -44.2956 -20.7026 -20.7026 -20.6302  -5.2508  -4.4843  -4.4698  -3.3083
    -3.2261  -3.1898  -3.1625  -2.9237   4.2973   7.3337   7.4920   7.7557
     7.8235   9.4608  10.2510  10.4490  10.4979  11.8118  15.8306  15.8662
    16.4545  17.9315

          k =-0.2500 0.3500 0.2500 (  4595 PWs)   bands (ev):

   -44.2964 -20.6889 -20.6585 -20.6580  -5.2167  -4.7133  -4.6267  -3.3032
    -3.2824  -3.1697  -3.0583  -3.0572   4.6813   7.3627   7.5284   7.9382
     8.5981   8.7083  10.6055  11.0371  11.0611  11.2766  15.1719  15.6907
    15.8819  17.2644

          k =-0.2500 0.4500 0.2500 (  4598 PWs)   bands (ev):

   -44.2960 -20.7056 -20.6577 -20.6573  -5.1473  -4.7204  -4.5579  -3.2977
    -3.2676  -3.1208  -3.0638  -3.0473   4.6088   7.2064   7.3913   7.6754
     8.5641   8.7652  10.3433  11.0237  11.0732  11.3411  15.2191  15.8743
    16.1270  17.5921

          k = 0.3500 0.2500 0.3500 (  4602 PWs)   bands (ev):

   -44.2958 -20.6858 -20.6853 -20.6591  -5.0996  -4.6777  -4.6201  -3.2839
    -3.2572  -3.1158  -3.0355  -2.9920   4.6811   7.1764   7.2549   7.8038
     7.9964   8.6253  10.1872  11.0992  11.1311  11.4830  15.3948  15.7784
    16.0420  17.6439

          k =-0.2500 0.4500 0.3500 (  4596 PWs)   bands (ev):

   -44.2954 -20.7043 -20.6847 -20.6563  -5.0597  -4.6654  -4.5677  -3.2760
    -3.2352  -3.0696  -3.0358  -2.9500   4.6561   7.0206   7.2474   7.4209
     7.9275   8.6327   9.7879  11.1048  11.1524  11.6104  15.5743  15.8807
    16.2286  18.0467

          k = 0.4500 0.2500 0.3500 (  4596 PWs)   bands (ev):

   -44.2954 -20.7022 -20.6847 -20.6583  -5.0611  -4.6656  -4.5671  -3.2758
    -3.2353  -3.0687  -3.0352  -2.9514   4.6562   7.0245   7.2448   7.4231
     7.9273   8.6321   9.7880  11.1064  11.1497  11.6128  15.5751  15.8769
    16.2284  18.0470

          k = 0.4500 0.2500 0.4500 (  4598 PWs)   bands (ev):

   -44.2950 -20.7014 -20.7014 -20.6576  -5.0519  -4.5831  -4.5705  -3.2669
    -3.2065  -3.0362  -3.0244  -2.8870   4.6548   7.0421   7.0724   7.3325
     7.5516   8.6270   9.3078  11.1424  11.1460  11.7982  15.8517  15.9092
    16.3569  18.4182

          k =-0.3500 0.4500 0.3500 (  4603 PWs)   bands (ev):

   -44.2948 -20.7030 -20.6837 -20.6834  -4.8858  -4.7108  -4.6261  -3.2384
    -3.2196  -2.9618  -2.9306  -2.8967   4.9683   6.6313   6.8084   7.3939
     7.8616   7.9304   8.9082  11.4653  11.5209  11.6397  15.8100  16.0178
    16.2265  18.5083

          k = 0.4500 0.3500 0.4500 (  4605 PWs)   bands (ev):

   -44.2945 -20.7002 -20.7002 -20.6848  -4.8492  -4.6660  -4.6552  -3.2251
    -3.2016  -2.8966  -2.8856  -2.8400   5.1689   6.5446   6.5785   7.2945
     7.5470   7.8958   8.2531  11.5801  11.5821  11.7849  16.0381  16.1005
    16.3112  18.9216

     the Fermi energy is    12.1621 ev

!    total energy              =    -364.93300320 Ry
     Harris-Foulkes estimate   =    -364.93300320 Ry
     estimated scf accuracy    <          3.8E-11 Ry

     The total energy is the sum of the following terms:

     one-electron contribution =     -69.70376852 Ry
     hartree contribution      =      66.95613612 Ry
     xc contribution           =     -86.13970357 Ry
     ewald contribution        =    -276.05083497 Ry
     smearing contrib. (-TS)   =       0.00516774 Ry

     convergence has been achieved in   7 iterations

     Forces acting on atoms (cartesian axes, Ry/au):

     atom    1 type  1   force =     0.00000000   -0.00114236    0.00000000
     atom    2 type  2   force =     0.00000000    0.00075944    0.00000000
     atom    3 type  3   force =     0.00000000    0.00063664    0.00000000
     atom    4 type  3   force =     0.00000000   -0.00089035    0.00000000
     atom    5 type  3   force =     0.00000000    0.00063664    0.00000000

     Total force =     0.001477     Total SCF correction =     0.000008


     Computing stress (Cartesian axis) and pressure

          total   stress  (Ry/bohr**3)                   (kbar)     P=  203.94
   0.00138372   0.00000000   0.00000000        203.55      0.00      0.00
   0.00000000   0.00139172   0.00000000          0.00    204.73      0.00
   0.00000000   0.00000000   0.00138372          0.00      0.00    203.55


     bfgs converged in   8 scf cycles and   7 bfgs steps
     (criteria: energy <  1.0E-04 Ry, force <  1.0E-03 Ry/Bohr)

     End of BFGS Geometry Optimization

     Final energy   =    -364.9330031978 Ry
Begin final coordinates

ATOMIC_POSITIONS (crystal)
Pb       0.000000000   0.000000000   0.000000000    0   0   0
Ti       0.500000000   0.498889169   0.500000000
O        0.500000000   0.506523019   0.000000000
O        0.500000000   0.004772007   0.500000000
O        0.000000000   0.506523019   0.500000000
End final coordinates



     Writing output data file PbTiO3.save/

     init_run     :     10.64s CPU     14.38s WALL (       1 calls)
     electrons    :   1827.35s CPU   2486.77s WALL (       8 calls)
     update_pot   :      2.59s CPU      2.70s WALL (       7 calls)
     forces       :     36.93s CPU     42.32s WALL (       8 calls)
     stress       :     97.62s CPU    105.80s WALL (       8 calls)

     Called by init_run:
     wfcinit      :      7.96s CPU     11.38s WALL (       1 calls)
     potinit      :      0.27s CPU      0.29s WALL (       1 calls)
     hinit0       :      1.87s CPU      1.89s WALL (       1 calls)

     Called by electrons:
     c_bands      :   1574.14s CPU   2099.00s WALL (      69 calls)
     sum_band     :    202.96s CPU    320.03s WALL (      69 calls)
     v_of_rho     :     15.10s CPU     16.24s WALL (      75 calls)
     newd         :     38.73s CPU     56.68s WALL (      75 calls)
     mix_rho      :      1.24s CPU      1.44s WALL (      69 calls)

     Called by c_bands:
     init_us_2    :     25.68s CPU     32.88s WALL (   11625 calls)
     cegterg      :   1499.88s CPU   2018.28s WALL (    5175 calls)

     Called by sum_band:
     sum_band:bec :      0.30s CPU      0.41s WALL (    5175 calls)
     addusdens    :     49.30s CPU     65.27s WALL (      69 calls)

     Called by *egterg:
     h_psi        :    849.70s CPU   1308.19s WALL (   22340 calls)
     s_psi        :    149.71s CPU    165.30s WALL (   22340 calls)
     g_psi        :     13.84s CPU     17.71s WALL (   17090 calls)
     cdiaghg      :     29.02s CPU     37.41s WALL (   21590 calls)

     Called by h_psi:
     h_psi:pot    :    846.50s CPU   1303.36s WALL (   22340 calls)
     h_psi:calbec :    149.58s CPU    166.40s WALL (   22340 calls)
     vloc_psi     :    543.72s CPU    971.01s WALL (   22340 calls)
     add_vuspsi   :    151.86s CPU    164.35s WALL (   22340 calls)

     General routines
     calbec       :    233.34s CPU    257.78s WALL (   30515 calls)
     fft          :      7.04s CPU      7.75s WALL (    1168 calls)
     ffts         :      0.16s CPU      0.26s WALL (     144 calls)
     fftw         :    560.93s CPU   1011.42s WALL (  887738 calls)
     interpolate  :      0.62s CPU      0.77s WALL (      75 calls)

     Parallel routines

     PWSCF        :  32m59.85s CPU  44m18.62s WALL


   This run was terminated on:  10:10:15  14May2020            

=------------------------------------------------------------------------------=
   JOB DONE.
=------------------------------------------------------------------------------=
