
     Program PWSCF v.6.4.1 starts on 15May2020 at  5:27:26 

     This program is part of the open-source Quantum ESPRESSO suite
     for quantum simulation of materials; please cite
         "P. Giannozzi et al., J. Phys.:Condens. Matter 21 395502 (2009);
         "P. Giannozzi et al., J. Phys.:Condens. Matter 29 465901 (2017);
          URL http://www.quantum-espresso.org", 
     in publications or presentations arising from this work. More details at
     http://www.quantum-espresso.org/quote

     Parallel version (MPI), running on     1 processors

     MPI processes distributed on     1 nodes
     Reading input from PTO_7.57_10_0.548.pw.in
Warning: card  &CELL ignored
Warning: card   CELL_DYNAMICS = 'BFGS', ignored
Warning: card  / ignored

     Current dimensions of program PWSCF are:
     Max number of different atomic species (ntypx) = 10
     Max number of k-points (npk) =  40000
     Max angular momentum in pseudopotentials (lmaxx) =  3
     Message from routine read_upf::
     Pseudo file Pb.pbe-dn-rrkjus_psl.0.2.2.UPF has been fixed on the fly.
To avoid this message in the future, permanently fix 
 your pseudo files following these instructions: 
https://gitlab.com/QEF/q-e/blob/master/upftools/how_to_fix_upf.md
     Message from routine read_upf::
     Pseudo file O.pbe-n-rrkjus_psl.0.1.UPF has been fixed on the fly.
To avoid this message in the future, permanently fix 
 your pseudo files following these instructions: 
https://gitlab.com/QEF/q-e/blob/master/upftools/how_to_fix_upf.md
               file Pb.pbe-dn-rrkjus_psl.0.2.2.UPF: wavefunction(s)  6S renormalized

     Subspace diagonalization in iterative solution of the eigenvalue problem:
     a serial algorithm will be used


     G-vector sticks info
     --------------------
     sticks:   dense  smooth     PW     G-vecs:    dense   smooth      PW
     Sum        3657    1465    421               165957    41923    6451



     bravais-lattice index     =            1
     lattice parameter (alat)  =       7.5700  a.u.
     unit-cell volume          =     433.7981 (a.u.)^3
     number of atoms/cell      =            5
     number of atomic types    =            3
     number of electrons       =        44.00
     number of Kohn-Sham states=           26
     kinetic-energy cutoff     =      80.0000  Ry
     charge density cutoff     =     800.0000  Ry
     convergence threshold     =      1.0E-08
     mixing beta               =       0.7000
     number of iterations used =            8  plain     mixing
     Exchange-correlation      = PBE ( 1  4  3  4 0 0)
     nstep                     =           50


     celldm(1)=   7.570000  celldm(2)=   0.000000  celldm(3)=   0.000000
     celldm(4)=   0.000000  celldm(5)=   0.000000  celldm(6)=   0.000000

     crystal axes: (cart. coord. in units of alat)
               a(1) = (   1.000000   0.000000   0.000000 )  
               a(2) = (   0.000000   1.000000   0.000000 )  
               a(3) = (   0.000000   0.000000   1.000000 )  

     reciprocal axes: (cart. coord. in units 2 pi/alat)
               b(1) = (  1.000000  0.000000  0.000000 )  
               b(2) = (  0.000000  1.000000  0.000000 )  
               b(3) = (  0.000000  0.000000  1.000000 )  


     PseudoPot. # 1 for Pb read from file:
     ./Pb.pbe-dn-rrkjus_psl.0.2.2.UPF
     MD5 check sum: 7afc420059c37d6888fc09c0f121e83f
     Pseudo is Ultrasoft + core correction, Zval = 14.0
     Generated using "atomic" code by A. Dal Corso v.5.0.2 svn rev. 9415
     Using radial grid of 1281 points,  6 beta functions with: 
                l(1) =   0
                l(2) =   0
                l(3) =   1
                l(4) =   1
                l(5) =   2
                l(6) =   2
     Q(r) pseudized with 0 coefficients 


     PseudoPot. # 2 for Ti read from file:
     ./Ti.pbe-sp-van_ak.UPF
     MD5 check sum: 8e4df49b7f0d34bbd5052bf3f5ea0213
     Pseudo is Ultrasoft, Zval = 12.0
     Generated by new atomic code, or converted to UPF format
     Using radial grid of  851 points,  6 beta functions with: 
                l(1) =   0
                l(2) =   0
                l(3) =   1
                l(4) =   1
                l(5) =   2
                l(6) =   2
     Q(r) pseudized with  8 coefficients,  rinner =    1.000   1.000   1.000
                                                       1.000   1.000

     PseudoPot. # 3 for O  read from file:
     ./O.pbe-n-rrkjus_psl.0.1.UPF
     MD5 check sum: e057bbcf3229fb5d8c36c0c92f9568b4
     Pseudo is Ultrasoft + core correction, Zval =  6.0
     Generated using "atomic" code by A. Dal Corso v.5.0.2 svn rev. 9415
     Using radial grid of 1095 points,  4 beta functions with: 
                l(1) =   0
                l(2) =   0
                l(3) =   1
                l(4) =   1
     Q(r) pseudized with 0 coefficients 


     atomic species   valence    mass     pseudopotential
        Pb            14.00   207.20000     Pb( 1.00)
        Ti            12.00    47.87000     Ti( 1.00)
        O              6.00    16.00000     O ( 1.00)

      8 Sym. Ops. (no inversion) found



   Cartesian axes

     site n.     atom                  positions (alat units)
         1           Pb  tau(   1) = (   0.0000000   0.0000000   0.0000000  )
         2           Ti  tau(   2) = (   0.5000000   0.5480000   0.5000000  )
         3           O   tau(   3) = (   0.5000000   0.5000000   0.0000000  )
         4           O   tau(   4) = (   0.5000000   0.0000000   0.5000000  )
         5           O   tau(   5) = (   0.0000000   0.5000000   0.5000000  )

     number of k points=    75  Marzari-Vanderbilt smearing, width (Ry)=  0.0250
                       cart. coord. in units 2pi/alat
        k(    1) = (   0.0500000   0.0500000   0.0500000), wk =   0.0160000
        k(    2) = (   0.0500000   0.0500000   0.1500000), wk =   0.0320000
        k(    3) = (   0.0500000   0.0500000   0.2500000), wk =   0.0320000
        k(    4) = (   0.0500000   0.0500000   0.3500000), wk =   0.0320000
        k(    5) = (   0.0500000   0.0500000   0.4500000), wk =   0.0320000
        k(    6) = (   0.0500000   0.1500000   0.1500000), wk =   0.0320000
        k(    7) = (   0.0500000   0.1500000   0.2500000), wk =   0.0320000
        k(    8) = (   0.0500000   0.1500000   0.3500000), wk =   0.0320000
        k(    9) = (   0.0500000   0.1500000   0.4500000), wk =   0.0320000
        k(   10) = (   0.0500000   0.2500000   0.2500000), wk =   0.0320000
        k(   11) = (   0.0500000   0.2500000   0.3500000), wk =   0.0320000
        k(   12) = (   0.0500000   0.2500000   0.4500000), wk =   0.0320000
        k(   13) = (   0.0500000   0.3500000   0.3500000), wk =   0.0320000
        k(   14) = (   0.0500000   0.3500000   0.4500000), wk =   0.0320000
        k(   15) = (   0.0500000   0.4500000   0.4500000), wk =   0.0320000
        k(   16) = (   0.1500000   0.1500000   0.1500000), wk =   0.0160000
        k(   17) = (   0.1500000   0.1500000   0.2500000), wk =   0.0320000
        k(   18) = (   0.1500000   0.1500000   0.3500000), wk =   0.0320000
        k(   19) = (   0.1500000   0.1500000   0.4500000), wk =   0.0320000
        k(   20) = (   0.1500000   0.2500000   0.2500000), wk =   0.0320000
        k(   21) = (   0.1500000   0.2500000   0.3500000), wk =   0.0320000
        k(   22) = (   0.1500000   0.2500000   0.4500000), wk =   0.0320000
        k(   23) = (   0.1500000   0.3500000   0.3500000), wk =   0.0320000
        k(   24) = (   0.1500000   0.3500000   0.4500000), wk =   0.0320000
        k(   25) = (   0.1500000   0.4500000   0.4500000), wk =   0.0320000
        k(   26) = (   0.2500000   0.2500000   0.2500000), wk =   0.0160000
        k(   27) = (   0.2500000   0.2500000   0.3500000), wk =   0.0320000
        k(   28) = (   0.2500000   0.2500000   0.4500000), wk =   0.0320000
        k(   29) = (   0.2500000   0.3500000   0.3500000), wk =   0.0320000
        k(   30) = (   0.2500000   0.3500000   0.4500000), wk =   0.0320000
        k(   31) = (   0.2500000   0.4500000   0.4500000), wk =   0.0320000
        k(   32) = (   0.3500000   0.3500000   0.3500000), wk =   0.0160000
        k(   33) = (   0.3500000   0.3500000   0.4500000), wk =   0.0320000
        k(   34) = (   0.3500000   0.4500000   0.4500000), wk =   0.0320000
        k(   35) = (   0.4500000   0.4500000   0.4500000), wk =   0.0160000
        k(   36) = (  -0.0500000   0.1500000   0.0500000), wk =   0.0160000
        k(   37) = (  -0.0500000   0.2500000   0.0500000), wk =   0.0160000
        k(   38) = (  -0.0500000   0.3500000   0.0500000), wk =   0.0160000
        k(   39) = (  -0.0500000   0.4500000   0.0500000), wk =   0.0160000
        k(   40) = (   0.1500000   0.0500000   0.1500000), wk =   0.0160000
        k(   41) = (  -0.0500000   0.2500000   0.1500000), wk =   0.0320000
        k(   42) = (   0.2500000   0.0500000   0.1500000), wk =   0.0320000
        k(   43) = (  -0.0500000   0.3500000   0.1500000), wk =   0.0320000
        k(   44) = (   0.3500000   0.0500000   0.1500000), wk =   0.0320000
        k(   45) = (  -0.0500000   0.4500000   0.1500000), wk =   0.0320000
        k(   46) = (   0.4500000   0.0500000   0.1500000), wk =   0.0320000
        k(   47) = (   0.2500000   0.0500000   0.2500000), wk =   0.0160000
        k(   48) = (  -0.0500000   0.3500000   0.2500000), wk =   0.0320000
        k(   49) = (   0.3500000   0.0500000   0.2500000), wk =   0.0320000
        k(   50) = (  -0.0500000   0.4500000   0.2500000), wk =   0.0320000
        k(   51) = (   0.4500000   0.0500000   0.2500000), wk =   0.0320000
        k(   52) = (   0.3500000   0.0500000   0.3500000), wk =   0.0160000
        k(   53) = (  -0.0500000   0.4500000   0.3500000), wk =   0.0320000
        k(   54) = (   0.4500000   0.0500000   0.3500000), wk =   0.0320000
        k(   55) = (   0.4500000   0.0500000   0.4500000), wk =   0.0160000
        k(   56) = (  -0.1500000   0.2500000   0.1500000), wk =   0.0160000
        k(   57) = (  -0.1500000   0.3500000   0.1500000), wk =   0.0160000
        k(   58) = (  -0.1500000   0.4500000   0.1500000), wk =   0.0160000
        k(   59) = (   0.2500000   0.1500000   0.2500000), wk =   0.0160000
        k(   60) = (  -0.1500000   0.3500000   0.2500000), wk =   0.0320000
        k(   61) = (   0.3500000   0.1500000   0.2500000), wk =   0.0320000
        k(   62) = (  -0.1500000   0.4500000   0.2500000), wk =   0.0320000
        k(   63) = (   0.4500000   0.1500000   0.2500000), wk =   0.0320000
        k(   64) = (   0.3500000   0.1500000   0.3500000), wk =   0.0160000
        k(   65) = (  -0.1500000   0.4500000   0.3500000), wk =   0.0320000
        k(   66) = (   0.4500000   0.1500000   0.3500000), wk =   0.0320000
        k(   67) = (   0.4500000   0.1500000   0.4500000), wk =   0.0160000
        k(   68) = (  -0.2500000   0.3500000   0.2500000), wk =   0.0160000
        k(   69) = (  -0.2500000   0.4500000   0.2500000), wk =   0.0160000
        k(   70) = (   0.3500000   0.2500000   0.3500000), wk =   0.0160000
        k(   71) = (  -0.2500000   0.4500000   0.3500000), wk =   0.0320000
        k(   72) = (   0.4500000   0.2500000   0.3500000), wk =   0.0320000
        k(   73) = (   0.4500000   0.2500000   0.4500000), wk =   0.0160000
        k(   74) = (  -0.3500000   0.4500000   0.3500000), wk =   0.0160000
        k(   75) = (   0.4500000   0.3500000   0.4500000), wk =   0.0160000

     Dense  grid:   165957 G-vectors     FFT dimensions: (  72,  72,  72)

     Smooth grid:    41923 G-vectors     FFT dimensions: (  45,  45,  45)

     Estimated max dynamical RAM per process >     783.86 MB

     Check: negative core charge=   -0.000005

     Initial potential from superposition of free atoms

     starting charge   42.99760, renormalised to   44.00000
     Starting wfcs are   31 randomized atomic wfcs

     total cpu time spent up to now is       16.5 secs

     Self-consistent Calculation

     iteration #  1     ecut=    80.00 Ry     beta= 0.70
     Davidson diagonalization with overlap
     ethr =  1.00E-02,  avg # of iterations =  2.0

     total cpu time spent up to now is       47.3 secs

     total energy              =    -364.38819549 Ry
     Harris-Foulkes estimate   =    -365.28624235 Ry
     estimated scf accuracy    <       1.12617053 Ry

     iteration #  2     ecut=    80.00 Ry     beta= 0.70
     Davidson diagonalization with overlap
     ethr =  2.56E-03,  avg # of iterations =  4.1

     total cpu time spent up to now is       94.4 secs

     total energy              =    -363.12023661 Ry
     Harris-Foulkes estimate   =    -365.85210683 Ry
     estimated scf accuracy    <      10.91974187 Ry

     iteration #  3     ecut=    80.00 Ry     beta= 0.70
     Davidson diagonalization with overlap
     ethr =  2.56E-03,  avg # of iterations =  5.0

     total cpu time spent up to now is      142.5 secs

     total energy              =    -364.92957222 Ry
     Harris-Foulkes estimate   =    -365.10894526 Ry
     estimated scf accuracy    <       0.48825644 Ry

     iteration #  4     ecut=    80.00 Ry     beta= 0.70
     Davidson diagonalization with overlap
     ethr =  1.11E-03,  avg # of iterations =  2.0

     total cpu time spent up to now is      172.1 secs

     total energy              =    -364.91255100 Ry
     Harris-Foulkes estimate   =    -364.96562827 Ry
     estimated scf accuracy    <       0.19625340 Ry

     iteration #  5     ecut=    80.00 Ry     beta= 0.70
     Davidson diagonalization with overlap
     ethr =  4.46E-04,  avg # of iterations =  4.7

     total cpu time spent up to now is      211.6 secs

     total energy              =    -364.95290186 Ry
     Harris-Foulkes estimate   =    -364.95319799 Ry
     estimated scf accuracy    <       0.00116021 Ry

     iteration #  6     ecut=    80.00 Ry     beta= 0.70
     Davidson diagonalization with overlap
     c_bands:  1 eigenvalues not converged
     c_bands:  1 eigenvalues not converged
     ethr =  2.64E-06,  avg # of iterations =  5.2

     total cpu time spent up to now is      264.3 secs

     total energy              =    -364.95339533 Ry
     Harris-Foulkes estimate   =    -364.95363872 Ry
     estimated scf accuracy    <       0.00084232 Ry

     iteration #  7     ecut=    80.00 Ry     beta= 0.70
     Davidson diagonalization with overlap
     ethr =  1.91E-06,  avg # of iterations =  3.0

     total cpu time spent up to now is      296.4 secs

     total energy              =    -364.95335523 Ry
     Harris-Foulkes estimate   =    -364.95355765 Ry
     estimated scf accuracy    <       0.00053342 Ry

     iteration #  8     ecut=    80.00 Ry     beta= 0.70
     Davidson diagonalization with overlap
     ethr =  1.21E-06,  avg # of iterations =  3.3

     total cpu time spent up to now is      331.8 secs

     total energy              =    -364.95347346 Ry
     Harris-Foulkes estimate   =    -364.95349939 Ry
     estimated scf accuracy    <       0.00009408 Ry

     iteration #  9     ecut=    80.00 Ry     beta= 0.70
     Davidson diagonalization with overlap
     ethr =  2.14E-07,  avg # of iterations =  2.3

     total cpu time spent up to now is      363.8 secs

     total energy              =    -364.95347366 Ry
     Harris-Foulkes estimate   =    -364.95348676 Ry
     estimated scf accuracy    <       0.00003623 Ry

     iteration # 10     ecut=    80.00 Ry     beta= 0.70
     Davidson diagonalization with overlap
     ethr =  8.23E-08,  avg # of iterations =  2.2

     total cpu time spent up to now is      394.6 secs

     total energy              =    -364.95347697 Ry
     Harris-Foulkes estimate   =    -364.95347790 Ry
     estimated scf accuracy    <       0.00000278 Ry

     iteration # 11     ecut=    80.00 Ry     beta= 0.70
     Davidson diagonalization with overlap
     ethr =  6.32E-09,  avg # of iterations =  3.3

     total cpu time spent up to now is      434.7 secs

     total energy              =    -364.95347807 Ry
     Harris-Foulkes estimate   =    -364.95347810 Ry
     estimated scf accuracy    <       0.00000013 Ry

     iteration # 12     ecut=    80.00 Ry     beta= 0.70
     Davidson diagonalization with overlap
     ethr =  2.90E-10,  avg # of iterations =  2.9

     total cpu time spent up to now is      469.4 secs

     total energy              =    -364.95347808 Ry
     Harris-Foulkes estimate   =    -364.95347809 Ry
     estimated scf accuracy    <       0.00000003 Ry

     iteration # 13     ecut=    80.00 Ry     beta= 0.70
     Davidson diagonalization with overlap
     ethr =  6.30E-11,  avg # of iterations =  3.1

     total cpu time spent up to now is      501.6 secs

     End of self-consistent calculation

          k = 0.0500 0.0500 0.0500 (  5245 PWs)   bands (ev):

   -46.6656 -22.9810 -22.8900 -22.8900  -7.5571  -6.6393  -6.5198  -5.6098
    -5.5923  -5.5920  -5.4542  -5.4335   3.9079   6.4332   6.4760   6.5986
     8.3207   8.3464   8.7454   8.7826   9.0414   9.0719  11.9603  12.4251
    12.4347  14.0227

          k = 0.0500 0.0500 0.1500 (  5240 PWs)   bands (ev):

   -46.6654 -22.9806 -22.8991 -22.8897  -7.4826  -6.6065  -6.4933  -5.6163
    -5.5990  -5.5917  -5.4822  -5.4346   3.6491   6.4851   6.5571   6.7484
     8.1140   8.3023   8.6472   8.7425   8.9149   9.0377  12.2613  12.4349
    12.5097  14.2227

          k = 0.0500 0.0500 0.2500 (  5229 PWs)   bands (ev):

   -46.6651 -22.9801 -22.9136 -22.8892  -7.3584  -6.5481  -6.4514  -5.6272
    -5.6100  -5.5910  -5.5361  -5.4326   3.3168   6.4747   6.6666   6.7936
     8.0002   8.1139   8.5552   8.6660   8.8362   9.0915  12.4356  12.6998
    12.8108  14.2291

          k = 0.0500 0.0500 0.3500 (  5230 PWs)   bands (ev):

   -46.6648 -22.9795 -22.9282 -22.8886  -7.2290  -6.4791  -6.4131  -5.6424
    -5.6232  -5.5908  -5.5900  -5.4322   3.0506   6.1447   6.8506   6.9667
     7.7498   7.8671   8.5037   8.5841   8.9296   9.4187  12.4365  13.0951
    13.1857  13.6349

          k = 0.0500 0.0500 0.4500 (  5242 PWs)   bands (ev):

   -46.6647 -22.9792 -22.9371 -22.8883  -7.1460  -6.4223  -6.3989  -5.6665
    -5.6336  -5.6118  -5.5898  -5.4332   2.9099   5.8849   7.0533   7.2189
     7.4710   7.5592   8.5022   8.5516   8.9833   9.8192  12.4206  12.9547
    13.3285  13.4460

          k = 0.0500 0.1500 0.1500 (  5233 PWs)   bands (ev):

   -46.6652 -22.9899 -22.8987 -22.8893  -7.3948  -6.5896  -6.4667  -5.6164
    -5.6082  -5.5976  -5.4743  -5.4563   3.4515   6.4412   6.5461   6.8956
     7.8973   8.1265   8.4990   8.7982   8.8758   9.1297  12.2618  12.6684
    12.7262  14.3193

          k = 0.0500 0.1500 0.2500 (  5245 PWs)   bands (ev):

   -46.6649 -22.9893 -22.9132 -22.8888  -7.2749  -6.5383  -6.4329  -5.6300
    -5.6170  -5.5971  -5.5055  -5.4485   3.1849   6.3932   6.6637   6.8527
     7.7507   7.9720   8.3870   8.6198   8.8436   9.2641  12.6478  12.7192
    12.9733  14.3687

          k = 0.0500 0.1500 0.3500 (  5230 PWs)   bands (ev):

   -46.6647 -22.9887 -22.9277 -22.8883  -7.1520  -6.4842  -6.3969  -5.6464
    -5.6254  -5.5968  -5.5315  -5.4473   2.9580   6.1313   6.7744   6.9294
     7.5197   7.8272   8.3194   8.6076   8.8241   9.4717  12.6627  13.0893
    13.2989  13.7943

          k = 0.0500 0.1500 0.4500 (  5238 PWs)   bands (ev):

   -46.6645 -22.9884 -22.9367 -22.8880  -7.0744  -6.4495  -6.3726  -5.6598
    -5.6333  -5.5966  -5.5397  -5.4515   2.8340   5.8872   6.9049   7.0813
     7.3397   7.5863   8.3462   8.6786   8.7937   9.6378  12.6438  13.3093
    13.3413  13.5321

          k = 0.0500 0.2500 0.2500 (  5229 PWs)   bands (ev):

   -46.6647 -23.0043 -22.9126 -22.8883  -7.1374  -6.5275  -6.3929  -5.6332
    -5.6215  -5.6032  -5.4855  -5.4600   2.9833   6.2612   6.6497   6.7841
     7.5371   7.7078   8.1709   8.6107   9.0069   9.3981  12.6813  13.0367
    13.2326  14.3359

          k = 0.0500 0.2500 0.3500 (  5247 PWs)   bands (ev):

   -46.6644 -23.0036 -22.9271 -22.8877  -7.0336  -6.4947  -6.3480  -5.6423
    -5.6245  -5.6046  -5.4956  -5.4401   2.8099   6.0906   6.5365   6.8776
     7.3426   7.6711   8.0884   8.4196   9.1013   9.3932  13.0009  13.0931
    13.4760  14.0763

          k = 0.0500 0.2500 0.4500 (  5250 PWs)   bands (ev):

   -46.6642 -23.0032 -22.9360 -22.8874  -6.9733  -6.4744  -6.3114  -5.6479
    -5.6317  -5.6059  -5.4894  -5.4369   2.7107   5.8793   6.5613   6.8963
     7.2378   7.6943   8.0134   8.4146   9.1035   9.3579  13.0106  13.2988
    13.6622  13.9001

          k = 0.0500 0.3500 0.3500 (  5252 PWs)   bands (ev):

   -46.6641 -23.0184 -22.9264 -22.8872  -6.9345  -6.4761  -6.2907  -5.6414
    -5.6274  -5.6059  -5.5197  -5.3845   2.6654   5.8991   6.3010   6.8684
     7.2754   7.5257   7.9711   8.3724   9.0265   9.4725  13.0482  13.3818
    13.6589  14.3767

          k = 0.0500 0.3500 0.4500 (  5246 PWs)   bands (ev):

   -46.6639 -23.0180 -22.9352 -22.8868  -6.9068  -6.4471  -6.2427  -5.6422
    -5.6303  -5.6092  -5.5276  -5.3523   2.5878   5.7919   6.1695   6.9474
     7.0914   7.7062   7.8928   8.2425   8.8147   9.5478  13.2713  13.3773
    13.8143  14.4304

          k = 0.0500 0.4500 0.4500 (  5258 PWs)   bands (ev):

   -46.6637 -23.0271 -22.9348 -22.8865  -6.8883  -6.3995  -6.1952  -5.6449
    -5.6298  -5.6079  -5.5535  -5.3041   2.5124   5.6064   6.0673   6.9242
     7.0895   7.6508   7.9397   8.1748   8.4948   9.7167  13.2553  13.5986
    13.9191  14.7608

          k = 0.1500 0.1500 0.1500 (  5233 PWs)   bands (ev):

   -46.6651 -22.9896 -22.8985 -22.8983  -7.3259  -6.5659  -6.4465  -5.6233
    -5.6133  -5.5968  -5.4741  -5.4561   3.3181   6.4211   6.4691   6.9948
     7.7533   7.8998   8.4591   8.8613   8.9931   8.9974  12.4740  12.7055
    12.7432  14.7877

          k = 0.1500 0.1500 0.2500 (  5249 PWs)   bands (ev):

   -46.6648 -22.9890 -22.9129 -22.8978  -7.2145  -6.5248  -6.4129  -5.6353
    -5.6147  -5.5930  -5.4895  -5.4488   3.1147   6.3614   6.4725   6.8699
     7.5440   7.7039   8.4903   8.7652   8.9448   9.1790  12.6691  12.8333
    12.9694  14.4917

          k = 0.1500 0.1500 0.3500 (  5244 PWs)   bands (ev):

   -46.6645 -22.9884 -22.9273 -22.8973  -7.1046  -6.4796  -6.3770  -5.6463
    -5.6082  -5.5867  -5.5110  -5.4475   2.9283   6.1321   6.4911   6.7866
     7.3365   7.7451   8.2790   8.7947   8.9536   9.3556  12.6176  13.1395
    13.2898  14.0049

          k = 0.1500 0.1500 0.4500 (  5231 PWs)   bands (ev):

   -46.6643 -22.9880 -22.9363 -22.8969  -7.0383  -6.4494  -6.3526  -5.6508
    -5.6032  -5.5796  -5.5255  -5.4526   2.8222   5.8921   6.5023   6.8352
     7.2314   7.8565   8.0444   8.8711   8.9338   9.4394  12.5557  13.3443
    13.5146  13.7705

          k = 0.1500 0.2500 0.2500 (  5231 PWs)   bands (ev):

   -46.6645 -23.0039 -22.9123 -22.8972  -7.0755  -6.5198  -6.3969  -5.6374
    -5.6235  -5.5796  -5.4675  -5.4430   2.9784   6.2187   6.3459   6.7029
     7.2751   7.5229   8.4135   8.8176   9.0502   9.2638  12.7157  13.0205
    13.1901  14.3077

          k = 0.1500 0.2500 0.3500 (  5243 PWs)   bands (ev):

   -46.6642 -23.0033 -22.9267 -22.8967  -6.9781  -6.5027  -6.3581  -5.6399
    -5.6136  -5.5699  -5.4693  -5.4248   2.8532   6.0714   6.3174   6.5018
     6.9808   7.5631   8.4528   8.6445   9.0904   9.2759  12.8476  13.1225
    13.4207  14.2635

          k = 0.1500 0.2500 0.4500 (  5235 PWs)   bands (ev):

   -46.6640 -23.0029 -22.9356 -22.8963  -6.9231  -6.4961  -6.3228  -5.6388
    -5.6046  -5.5669  -5.4628  -5.4234   2.7768   5.8784   6.2974   6.4460
     6.8802   7.6586   8.2836   8.7235   8.9963   9.2755  12.8592  13.2910
    13.6085  14.2915

          k = 0.1500 0.3500 0.3500 (  5247 PWs)   bands (ev):

   -46.6639 -23.0181 -22.9260 -22.8961  -6.8674  -6.5024  -6.3363  -5.6374
    -5.6074  -5.5492  -5.4767  -5.3690   2.7658   5.8741   6.2211   6.2833
     6.7210   7.5292   8.2952   8.6681   8.9269   9.4385  12.9694  13.2952
    13.5809  14.5561

          k = 0.1500 0.3500 0.4500 (  5234 PWs)   bands (ev):

   -46.6637 -23.0176 -22.9349 -22.8957  -6.8394  -6.4951  -6.2931  -5.6335
    -5.5899  -5.5533  -5.4770  -5.3371   2.7174   5.7799   6.1060   6.2886
     6.5188   7.5993   8.2149   8.5848   8.7389   9.5394  13.1948  13.2891
    13.7245  14.7690

          k = 0.1500 0.4500 0.4500 (  5254 PWs)   bands (ev):

   -46.6636 -23.0267 -22.9344 -22.8954  -6.8154  -6.4600  -6.2755  -5.6314
    -5.5727  -5.5381  -5.4978  -5.2877   2.6742   5.5912   6.0278   6.2692
     6.4113   7.5989   7.9467   8.4911   8.7078   9.6998  13.2421  13.4819
    13.8202  15.0981

          k = 0.2500 0.2500 0.2500 (  5226 PWs)   bands (ev):

   -46.6642 -23.0033 -22.9118 -22.9116  -6.9836  -6.5042  -6.3958  -5.6281
    -5.6236  -5.5497  -5.4448  -5.4179   2.9554   6.0642   6.1404   6.5477
     7.0482   7.1139   8.5559   9.0219   9.0701   9.2086  12.7245  13.1575
    13.1673  14.3358

          k = 0.2500 0.2500 0.3500 (  5244 PWs)   bands (ev):

   -46.6639 -23.0027 -22.9261 -22.9111  -6.9076  -6.4918  -6.3727  -5.6229
    -5.6092  -5.5148  -5.4274  -5.4003   2.9144   5.9395   6.0038   6.2543
     6.7757   7.0761   8.3997   8.9882   9.0970   9.3436  12.7988  13.2094
    13.4043  14.5266

          k = 0.2500 0.2500 0.4500 (  5239 PWs)   bands (ev):

   -46.6637 -23.0023 -22.9349 -22.9107  -6.8707  -6.4899  -6.3413  -5.6191
    -5.5984  -5.4819  -5.4217  -5.3966   2.8815   5.8437   5.8951   6.0879
     6.7029   7.1161   8.1751   9.0154   9.0552   9.4004  12.9016  13.2903
    13.5889  14.7644

          k = 0.2500 0.3500 0.3500 (  5243 PWs)   bands (ev):

   -46.6636 -23.0175 -22.9254 -22.9105  -6.7740  -6.5246  -6.3970  -5.6170
    -5.5923  -5.4765  -5.4019  -5.3397   2.9400   5.7017   5.8441   6.0383
     6.4818   6.9661   7.9516   9.0639   9.2585   9.4363  12.9420  13.3420
    13.5312  14.8474

          k = 0.2500 0.3500 0.4500 (  5231 PWs)   bands (ev):

   -46.6635 -23.0171 -22.9343 -22.9101  -6.7485  -6.5397  -6.3610  -5.6109
    -5.5778  -5.4519  -5.3887  -5.3084   2.9570   5.6853   5.7334   5.8593
     6.2984   6.9923   7.6038   9.0841   9.2487   9.5440  13.1735  13.3269
    13.6688  15.1772

          k = 0.2500 0.4500 0.4500 (  5237 PWs)   bands (ev):

   -46.6633 -23.0261 -22.9339 -22.9098  -6.6989  -6.5386  -6.3734  -5.6073
    -5.5621  -5.4320  -5.3701  -5.2568   2.9920   5.4990   5.7046   5.7882
     6.1251   6.9639   7.1583   9.0802   9.2940   9.6836  13.3003  13.4590
    13.7562  15.5051

          k = 0.3500 0.3500 0.3500 (  5250 PWs)   bands (ev):

   -46.6633 -23.0168 -22.9249 -22.9248  -6.7249  -6.5098  -6.4353  -5.5957
    -5.5821  -5.4069  -5.3350  -5.3040   3.1284   5.4571   5.5602   5.8837
     6.4215   6.4972   7.3412   9.3296   9.4286   9.5678  13.1007  13.5056
    13.5070  15.2048

          k = 0.3500 0.3500 0.4500 (  5247 PWs)   bands (ev):

   -46.6632 -23.0164 -22.9337 -22.9245  -6.7214  -6.5094  -6.4183  -5.5865
    -5.5727  -5.3591  -5.3060  -5.2751   3.2497   5.3645   5.4165   5.7285
     6.2659   6.4716   6.8731   9.3861   9.4985   9.6792  13.3192  13.4631
    13.6569  15.5734

          k = 0.3500 0.4500 0.4500 (  5243 PWs)   bands (ev):

   -46.6630 -23.0255 -22.9333 -22.9241  -6.6250  -6.5621  -6.4509  -5.5836
    -5.5585  -5.3330  -5.2598  -5.2194   3.4408   5.2039   5.3574   5.5738
     6.0835   6.2776   6.4449   9.4777   9.6577   9.6830  13.4654  13.5727
    13.7262  15.9265

          k = 0.4500 0.4500 0.4500 (  5268 PWs)   bands (ev):

   -46.6628 -23.0251 -22.9329 -22.9329  -6.6528  -6.5027  -6.4894  -5.5704
    -5.5552  -5.2749  -5.1983  -5.1922   3.9013   5.0336   5.1141   5.4833
     5.5596   6.0726   6.2014   9.6552   9.6685   9.8348  13.6309  13.7016
    13.7055  16.2701

          k =-0.0500 0.1500 0.0500 (  5240 PWs)   bands (ev):

   -46.6654 -22.9903 -22.8897 -22.8897  -7.4674  -6.6200  -6.4868  -5.6093
    -5.6001  -5.5978  -5.4678  -5.4516   3.6425   6.4765   6.4822   6.7503
     8.1407   8.1644   8.6431   8.7318   9.0718   9.0989  11.9623  12.6581
    12.6763  14.0251

          k =-0.0500 0.2500 0.0500 (  5229 PWs)   bands (ev):

   -46.6651 -23.0053 -22.8891 -22.8891  -7.3133  -6.5934  -6.4279  -5.6146
    -5.6086  -5.6061  -5.5268  -5.4492   3.2975   6.4200   6.5669   6.7054
     7.8948   7.9187   8.6817   8.7462   9.1470   9.1950  11.9653  13.0184
    13.0450  14.0298

          k =-0.0500 0.3500 0.0500 (  5230 PWs)   bands (ev):

   -46.6648 -23.0202 -22.8886 -22.8886  -7.1430  -6.5776  -6.3590  -5.6401
    -5.6134  -5.6077  -5.5846  -5.4492   3.0173   6.0495   6.6625   6.7812
     7.6719   7.6793   8.6209   8.9850   9.1992   9.5258  11.9673  13.3643
    13.3973  13.7182

          k =-0.0500 0.4500 0.0500 (  5242 PWs)   bands (ev):

   -46.6647 -23.0294 -22.8882 -22.8882  -7.0234  -6.5790  -6.3088  -5.6760
    -5.6172  -5.6079  -5.6072  -5.4507   2.8676   5.7618   6.7317   6.8836
     7.5101   7.5354   8.5814   9.0809   9.2335   9.9411  11.9658  13.0080
    13.5713  13.6128

          k = 0.1500 0.0500 0.1500 (  5233 PWs)   bands (ev):

   -46.6652 -22.9803 -22.8988 -22.8986  -7.4127  -6.5796  -6.4653  -5.6226
    -5.5994  -5.5972  -5.4845  -5.4480   3.4601   6.4399   6.6224   6.8789
     7.9376   8.0870   8.5063   8.7809   8.9564   9.0438  12.4510  12.5193
    12.5442  14.5608

          k =-0.0500 0.2500 0.1500 (  5245 PWs)   bands (ev):

   -46.6649 -23.0049 -22.8981 -22.8888  -7.2456  -6.5664  -6.4191  -5.6256
    -5.6151  -5.6040  -5.4958  -5.4632   3.1725   6.3326   6.5951   6.8353
     7.6495   7.9043   8.4022   8.8277   8.9377   9.3131  12.2604  13.0217
    13.0684  14.3396

          k = 0.2500 0.0500 0.1500 (  5245 PWs)   bands (ev):

   -46.6649 -22.9797 -22.9133 -22.8982  -7.2988  -6.5296  -6.4206  -5.6313
    -5.6072  -5.5972  -5.5136  -5.4507   3.1945   6.4193   6.6632   6.8659
     7.7400   7.8429   8.4484   8.7480   8.9489   9.1557  12.4957  12.7900
    12.8771  14.5756

          k =-0.0500 0.3500 0.1500 (  5230 PWs)   bands (ev):

   -46.6647 -23.0198 -22.8975 -22.8882  -7.0841  -6.5507  -6.3651  -5.6482
    -5.6147  -5.6087  -5.5267  -5.4627   2.9318   6.0141   6.6100   6.8626
     7.4499   7.7020   8.4860   8.8166   9.0015   9.5771  12.2531  13.3550
    13.4028  13.8942

          k = 0.3500 0.0500 0.1500 (  5230 PWs)   bands (ev):

   -46.6647 -22.9792 -22.9278 -22.8976  -7.1849  -6.4656  -6.3801  -5.6444
    -5.6114  -5.5968  -5.5513  -5.4501   2.9673   6.1485   6.7068   6.9866
     7.4853   7.8310   8.1752   8.7992   8.9610   9.4275  12.4757  13.1508
    13.2300  13.8536

          k =-0.0500 0.4500 0.1500 (  5238 PWs)   bands (ev):

   -46.6645 -23.0290 -22.8972 -22.8879  -6.9745  -6.5475  -6.3278  -5.6693
    -5.6143  -5.6131  -5.5371  -5.4673   2.7987   5.7414   6.6242   6.9612
     7.3258   7.5567   8.5872   8.7946   9.0418   9.7812  12.2402  13.3827
    13.5821  13.6307

          k = 0.4500 0.0500 0.1500 (  5238 PWs)   bands (ev):

   -46.6645 -22.9788 -22.9367 -22.8973  -7.1154  -6.4075  -6.3666  -5.6586
    -5.6140  -5.5966  -5.5699  -5.4525   2.8429   5.8921   6.8285   7.0639
     7.4186   7.6548   8.0857   8.7923   8.9946   9.6676  12.4327  13.3667
    13.3935  13.4690

          k = 0.2500 0.0500 0.2500 (  5229 PWs)   bands (ev):

   -46.6647 -22.9792 -22.9128 -22.9125  -7.2081  -6.4875  -6.3702  -5.6302
    -5.6093  -5.6015  -5.4895  -5.4776   3.0069   6.3848   6.5743   6.8836
     7.4371   7.5545   8.5266   8.5505   9.1583   9.1912  12.7168  12.8448
    13.1249  14.4532

          k =-0.0500 0.3500 0.2500 (  5247 PWs)   bands (ev):

   -46.6644 -23.0191 -22.9120 -22.8877  -6.9994  -6.5131  -6.3457  -5.6433
    -5.6237  -5.6064  -5.4993  -5.4423   2.7961   5.9646   6.5652   6.7902
     7.3634   7.6278   8.0522   8.6611   9.0546   9.4956  12.6687  13.3827
    13.4829  14.1631

          k = 0.3500 0.0500 0.2500 (  5247 PWs)   bands (ev):

   -46.6644 -22.9786 -22.9271 -22.9121  -7.1280  -6.4217  -6.3227  -5.6349
    -5.6107  -5.6022  -5.5018  -5.4724   2.8328   6.1539   6.5020   6.8903
     7.2706   7.5377   8.1926   8.6562   9.1329   9.3910  12.7390  13.1569
    13.3874  14.1434

          k =-0.0500 0.4500 0.2500 (  5250 PWs)   bands (ev):

   -46.6642 -23.0283 -22.9116 -22.8874  -6.9170  -6.4955  -6.3152  -5.6559
    -5.6232  -5.6116  -5.5004  -5.4351   2.6878   5.7042   6.5600   6.7746
     7.3151   7.5640   8.0656   8.7070   9.0150   9.5402  12.6578  13.5927
    13.6309  14.0566

          k = 0.4500 0.0500 0.2500 (  5250 PWs)   bands (ev):

   -46.6642 -22.9783 -22.9360 -22.9117  -7.0853  -6.3568  -6.3044  -5.6436
    -5.6116  -5.6061  -5.4956  -5.4776   2.7322   5.8950   6.5916   6.7660
     7.3104   7.6590   7.8793   8.7443   9.0545   9.5096  12.7174  13.3984
    13.5657  13.9469

          k = 0.3500 0.0500 0.3500 (  5252 PWs)   bands (ev):

   -46.6641 -22.9781 -22.9266 -22.9263  -7.0905  -6.3446  -6.2636  -5.6299
    -5.6154  -5.5995  -5.5202  -5.4352   2.7002   6.0692   6.2628   6.8475
     7.0150   7.5569   8.2303   8.3921   9.0374   9.5537  13.0556  13.1937
    13.5672  14.3841

          k =-0.0500 0.4500 0.3500 (  5246 PWs)   bands (ev):

   -46.6639 -23.0276 -22.9260 -22.8868  -6.8908  -6.4388  -6.2534  -5.6468
    -5.6284  -5.6091  -5.5332  -5.3509   2.5785   5.6575   6.2698   6.8078
     7.2837   7.5212   7.8976   8.3971   8.8083   9.5925  13.0392  13.5998
    13.7885  14.5717

          k = 0.4500 0.0500 0.3500 (  5246 PWs)   bands (ev):

   -46.6639 -22.9777 -22.9353 -22.9261  -7.0764  -6.2714  -6.2345  -5.6326
    -5.6134  -5.6063  -5.5325  -5.4081   2.6201   5.8464   6.2700   6.7296
     6.9853   7.7191   7.9906   8.4219   8.8529   9.6934  13.1061  13.3932
    13.6958  14.4684

          k = 0.4500 0.0500 0.4500 (  5258 PWs)   bands (ev):

   -46.6637 -22.9773 -22.9349 -22.9349  -7.0790  -6.2012  -6.1890  -5.6316
    -5.6105  -5.6054  -5.5625  -5.3657   2.5505   5.7252   6.1618   6.7597
     6.7792   7.8653   8.0661   8.1658   8.6091   9.8595  13.3720  13.3980
    13.7806  14.6915

          k =-0.1500 0.2500 0.1500 (  5249 PWs)   bands (ev):

   -46.6648 -23.0045 -22.8979 -22.8977  -7.1794  -6.5466  -6.4150  -5.6337
    -5.6222  -5.5913  -5.4726  -5.4641   3.1008   6.3285   6.3781   6.8805
     7.5543   7.7193   8.3108   8.9131   9.0475   9.1945  12.4465  13.0168
    13.0734  14.5155

          k =-0.1500 0.3500 0.1500 (  5244 PWs)   bands (ev):

   -46.6645 -23.0194 -22.8973 -22.8971  -7.0229  -6.5327  -6.3817  -5.6516
    -5.6193  -5.5776  -5.4933  -5.4633   2.9000   6.0157   6.3188   6.8175
     7.4242   7.6971   8.1664   8.9262   9.0944   9.4334  12.3881  13.3399
    13.3759  14.0517

          k =-0.1500 0.4500 0.1500 (  5231 PWs)   bands (ev):

   -46.6643 -23.0286 -22.8969 -22.8968  -6.9185  -6.5291  -6.3602  -5.6612
    -5.6173  -5.5617  -5.5085  -5.4704   2.7847   5.7435   6.2747   6.8685
     7.3676   7.6661   8.1320   8.9223   9.1230   9.5456  12.3355  13.5460
    13.5660  13.8425

          k = 0.2500 0.1500 0.2500 (  5231 PWs)   bands (ev):

   -46.6645 -22.9884 -22.9124 -22.9121  -7.1234  -6.4940  -6.3799  -5.6330
    -5.6201  -5.5785  -5.4709  -5.4513   2.9937   6.2740   6.3810   6.6974
     7.2109   7.4955   8.5798   8.8110   9.0493   9.1752  12.7700  12.9471
    13.1013  14.3196

          k =-0.1500 0.3500 0.2500 (  5243 PWs)   bands (ev):

   -46.6642 -23.0187 -22.9116 -22.8966  -6.9347  -6.5126  -6.3792  -5.6438
    -5.6200  -5.5584  -5.4712  -5.4269   2.8382   5.9610   6.2130   6.5407
     7.1492   7.5275   8.1989   8.9132   9.0930   9.3193  12.6550  13.3164
    13.4274  14.2951

          k = 0.3500 0.1500 0.2500 (  5243 PWs)   bands (ev):

   -46.6642 -22.9878 -22.9267 -22.9117  -7.0443  -6.4490  -6.3449  -5.6345
    -5.6132  -5.5581  -5.4689  -5.4506   2.8686   6.1172   6.2903   6.4853
     7.0255   7.4804   8.4551   8.8052   9.0131   9.3363  12.7485  13.1600
    13.3572  14.2736

          k =-0.1500 0.4500 0.2500 (  5235 PWs)   bands (ev):

   -46.6640 -23.0279 -22.9113 -22.8963  -6.8497  -6.5020  -6.3696  -5.6468
    -5.6160  -5.5376  -5.4816  -5.4194   2.7517   5.7122   6.1124   6.5390
     7.1317   7.6031   8.0285   8.9602   9.0455   9.3382  12.6337  13.5266
    13.6021  14.3726

          k = 0.4500 0.1500 0.2500 (  5235 PWs)   bands (ev):

   -46.6640 -22.9875 -22.9356 -22.9113  -7.0032  -6.4138  -6.3206  -5.6344
    -5.6069  -5.5393  -5.4697  -5.4571   2.7916   5.8910   6.2399   6.4513
     6.9851   7.5345   8.2895   8.8544   8.9234   9.4076  12.7309  13.3459
    13.5525  14.3038

          k = 0.3500 0.1500 0.3500 (  5247 PWs)   bands (ev):

   -46.6639 -22.9873 -22.9262 -22.9260  -7.0070  -6.3889  -6.3122  -5.6258
    -5.6070  -5.5350  -5.4651  -5.4195   2.7964   6.0478   6.1248   6.2886
     6.6758   7.4524   8.4498   8.7029   8.8326   9.5566  12.9664  13.2084
    13.5091  14.5452

          k =-0.1500 0.4500 0.3500 (  5234 PWs)   bands (ev):

   -46.6637 -23.0272 -22.9256 -22.8957  -6.8177  -6.4766  -6.3250  -5.6366
    -5.5994  -5.5248  -5.4969  -5.3350   2.7070   5.6457   6.1547   6.2120
     6.6978   7.5541   8.0961   8.6343   8.8362   9.5517  12.9978  13.4973
    13.7125  14.8397

          k = 0.4500 0.1500 0.3500 (  5234 PWs)   bands (ev):

   -46.6637 -22.9869 -22.9349 -22.9257  -6.9947  -6.3403  -6.2894  -5.6226
    -5.5962  -5.5189  -5.4758  -5.3939   2.7468   5.8375   6.1331   6.1926
     6.5646   7.4852   8.2828   8.6490   8.7526   9.6851  13.0644  13.3378
    13.6469  14.7795

          k = 0.4500 0.1500 0.4500 (  5254 PWs)   bands (ev):

   -46.6636 -22.9865 -22.9345 -22.9345  -6.9991  -6.2813  -6.2703  -5.6180
    -5.5781  -5.5048  -5.4932  -5.3518   2.7123   5.7143   6.1016   6.1890
     6.2856   7.5040   8.0584   8.6360   8.6425   9.8547  13.3112  13.3538
    13.7340  15.0787

          k =-0.2500 0.3500 0.2500 (  5244 PWs)   bands (ev):

   -46.6639 -23.0181 -22.9112 -22.9110  -6.8418  -6.5120  -6.4117  -5.6297
    -5.6101  -5.5129  -5.4290  -5.3907   2.8969   5.8481   5.9580   6.2647
     6.9797   6.9935   8.2883   9.0512   9.1875   9.2729  12.7269  13.3129
    13.4193  14.5361

          k =-0.2500 0.4500 0.2500 (  5239 PWs)   bands (ev):

   -46.6637 -23.0272 -22.9108 -22.9106  -6.7556  -6.5129  -6.4216  -5.6287
    -5.6016  -5.4733  -5.4354  -5.3759   2.8522   5.7193   5.7269   6.2200
     6.9576   7.0157   8.0556   9.0102   9.2160   9.3230  12.7780  13.4622
    13.6053  14.8092

          k = 0.3500 0.2500 0.3500 (  5243 PWs)   bands (ev):

   -46.6636 -23.0021 -22.9255 -22.9254  -6.8689  -6.4516  -6.3786  -5.6051
    -5.6003  -5.4612  -5.3842  -5.3809   2.9598   5.7851   5.7874   6.0463
     6.5301   6.8684   7.9863   9.1018   9.1487   9.5617  12.9444  13.3120
    13.4940  14.8411

          k =-0.2500 0.4500 0.3500 (  5231 PWs)   bands (ev):

   -46.6635 -23.0266 -22.9250 -22.9101  -6.7033  -6.5281  -6.4126  -5.6141
    -5.5797  -5.4461  -5.3937  -5.3035   2.9436   5.5332   5.7348   5.9211
     6.4208   6.9496   7.5915   9.0576   9.2965   9.5303  13.0617  13.4609
    13.6686  15.1952

          k = 0.4500 0.2500 0.3500 (  5231 PWs)   bands (ev):

   -46.6635 -23.0017 -22.9343 -22.9251  -6.8601  -6.4318  -6.3597  -5.6005
    -5.5871  -5.4157  -5.3819  -5.3573   2.9778   5.6568   5.7668   5.8297
     6.4130   6.8651   7.6410   9.1332   9.1530   9.6802  13.1292  13.3449
    13.6319  15.1730

          k = 0.4500 0.2500 0.4500 (  5237 PWs)   bands (ev):

   -46.6633 -23.0013 -22.9339 -22.9339  -6.8685  -6.3795  -6.3690  -5.5941
    -5.5735  -5.3769  -5.3654  -5.3240   3.0286   5.6154   5.6439   5.7086
     6.2007   6.8371   7.2326   9.1662   9.1709   9.8470  13.3392  13.3968
    13.7027  15.4876

          k =-0.3500 0.4500 0.3500 (  5247 PWs)   bands (ev):

   -46.6632 -23.0259 -22.9245 -22.9244  -6.6215  -6.5566  -6.4669  -5.5933
    -5.5677  -5.3762  -5.3018  -5.2593   3.2295   5.2745   5.5516   5.6595
     6.2794   6.4899   6.8674   9.4115   9.5482   9.5728  13.2633  13.5378
    13.6672  15.5758

          k = 0.4500 0.3500 0.4500 (  5243 PWs)   bands (ev):

   -46.6630 -23.0161 -22.9333 -22.9333  -6.7362  -6.4584  -6.4473  -5.5715
    -5.5701  -5.3004  -5.2585  -5.2548   3.4697   5.2431   5.2453   5.6114
     6.1997   6.2851   6.3418   9.5067   9.5160   9.8395  13.4940  13.5553
    13.6898  15.9217

     the Fermi energy is     9.9055 ev

!    total energy              =    -364.95347809 Ry
     Harris-Foulkes estimate   =    -364.95347809 Ry
     estimated scf accuracy    <          6.2E-10 Ry

     The total energy is the sum of the following terms:

     one-electron contribution =     -87.81486919 Ry
     hartree contribution      =      72.47425815 Ry
     xc contribution           =     -85.73072378 Ry
     ewald contribution        =    -263.88855985 Ry
     smearing contrib. (-TS)   =       0.00641658 Ry

     convergence has been achieved in  13 iterations

     Forces acting on atoms (cartesian axes, Ry/au):

     atom    1 type  1   force =     0.00000000    0.01715376    0.00000000
     atom    2 type  2   force =     0.00000000   -0.02727369    0.00000000
     atom    3 type  3   force =     0.00000000    0.00555138    0.00000000
     atom    4 type  3   force =     0.00000000   -0.00098282    0.00000000
     atom    5 type  3   force =     0.00000000    0.00555138    0.00000000

     Total force =     0.028398     Total SCF correction =     0.000047


     Computing stress (Cartesian axis) and pressure

          total   stress  (Ry/bohr**3)                   (kbar)     P=  -32.40
  -0.00030847   0.00000000   0.00000000        -45.38      0.00      0.00
   0.00000000  -0.00004384   0.00000000          0.00     -6.45      0.00
   0.00000000   0.00000000  -0.00030847          0.00      0.00    -45.38


     BFGS Geometry Optimization

     number of scf cycles    =   1
     number of bfgs steps    =   0

     energy   new            =    -364.9534780889 Ry

     new trust radius        =       0.0272736931 bohr
     new conv_thr            =       0.0000000100 Ry


ATOMIC_POSITIONS (crystal)
Pb       0.000000000   0.000000000   0.000000000    0   0   0
Ti       0.500000000   0.544397134   0.500000000
O        0.500000000   0.500733339   0.000000000
O        0.500000000  -0.000129831   0.500000000
O        0.000000000   0.500733339   0.500000000



     Writing output data file PbTiO3.save/
     NEW-OLD atomic charge density approx. for the potential

     Check: negative core charge=   -0.000005

     total cpu time spent up to now is      524.3 secs

     Self-consistent Calculation

     iteration #  1     ecut=    80.00 Ry     beta= 0.70
     Davidson diagonalization with overlap
     ethr =  1.00E-06,  avg # of iterations =  4.3

     total cpu time spent up to now is      586.6 secs

     total energy              =    -364.95413592 Ry
     Harris-Foulkes estimate   =    -364.95421247 Ry
     estimated scf accuracy    <       0.00012164 Ry

     iteration #  2     ecut=    80.00 Ry     beta= 0.70
     Davidson diagonalization with overlap
     ethr =  2.76E-07,  avg # of iterations =  3.9

     total cpu time spent up to now is      628.5 secs

     total energy              =    -364.95411139 Ry
     Harris-Foulkes estimate   =    -364.95423354 Ry
     estimated scf accuracy    <       0.00029978 Ry

     iteration #  3     ecut=    80.00 Ry     beta= 0.70
     Davidson diagonalization with overlap
     ethr =  2.76E-07,  avg # of iterations =  3.5

     total cpu time spent up to now is      667.2 secs

     total energy              =    -364.95417367 Ry
     Harris-Foulkes estimate   =    -364.95418693 Ry
     estimated scf accuracy    <       0.00003987 Ry

     iteration #  4     ecut=    80.00 Ry     beta= 0.70
     Davidson diagonalization with overlap
     ethr =  9.06E-08,  avg # of iterations =  3.0

     total cpu time spent up to now is      700.8 secs

     total energy              =    -364.95417964 Ry
     Harris-Foulkes estimate   =    -364.95418041 Ry
     estimated scf accuracy    <       0.00000154 Ry

     iteration #  5     ecut=    80.00 Ry     beta= 0.70
     Davidson diagonalization with overlap
     ethr =  3.49E-09,  avg # of iterations =  3.1

     total cpu time spent up to now is      739.4 secs

     total energy              =    -364.95417999 Ry
     Harris-Foulkes estimate   =    -364.95418038 Ry
     estimated scf accuracy    <       0.00000104 Ry

     iteration #  6     ecut=    80.00 Ry     beta= 0.70
     Davidson diagonalization with overlap
     ethr =  2.36E-09,  avg # of iterations =  2.8

     total cpu time spent up to now is      773.2 secs

     total energy              =    -364.95418020 Ry
     Harris-Foulkes estimate   =    -364.95418024 Ry
     estimated scf accuracy    <       0.00000011 Ry

     iteration #  7     ecut=    80.00 Ry     beta= 0.70
     Davidson diagonalization with overlap
     ethr =  2.57E-10,  avg # of iterations =  2.7

     total cpu time spent up to now is      805.9 secs

     End of self-consistent calculation

          k = 0.0500 0.0500 0.0500 (  5245 PWs)   bands (ev):

   -46.6923 -22.9928 -22.9164 -22.9164  -7.5555  -6.6349  -6.5297  -5.6031
    -5.5880  -5.5878  -5.4495  -5.4318   3.9148   6.4354   6.4738   6.5924
     8.3762   8.4019   8.7502   8.8127   9.0488   9.0673  11.9412  12.3428
    12.3494  13.9897

          k = 0.0500 0.0500 0.1500 (  5240 PWs)   bands (ev):

   -46.6921 -22.9925 -22.9255 -22.9161  -7.4800  -6.6026  -6.5029  -5.6097
    -5.5947  -5.5874  -5.4779  -5.4323   3.6558   6.4858   6.5513   6.7450
     8.1614   8.3405   8.6709   8.7506   8.9185   9.0391  12.2436  12.3519
    12.4561  14.1699

          k = 0.0500 0.0500 0.2500 (  5229 PWs)   bands (ev):

   -46.6918 -22.9919 -22.9401 -22.9156  -7.3541  -6.5453  -6.4604  -5.6208
    -5.6056  -5.5867  -5.5318  -5.4298   3.3237   6.4701   6.6655   6.7850
     8.0198   8.1260   8.5872   8.6809   8.8500   9.0989  12.3521  12.6853
    12.7799  14.1764

          k = 0.0500 0.0500 0.3500 (  5230 PWs)   bands (ev):

   -46.6915 -22.9914 -22.9546 -22.9151  -7.2227  -6.4785  -6.4208  -5.6370
    -5.6177  -5.5864  -5.5857  -5.4290   3.0579   6.1312   6.8479   6.9568
     7.7504   7.8601   8.5434   8.6132   8.9553   9.4251  12.3533  13.0841
    13.1616  13.6477

          k = 0.0500 0.0500 0.4500 (  5242 PWs)   bands (ev):

   -46.6914 -22.9910 -22.9636 -22.9147  -7.1382  -6.4247  -6.4043  -5.6620
    -5.6270  -5.6075  -5.5855  -5.4298   2.9179   5.8643   7.0471   7.2099
     7.4700   7.5460   8.5219   8.6086   9.0096   9.8268  12.3417  12.9624
    13.3197  13.4208

          k = 0.0500 0.1500 0.1500 (  5233 PWs)   bands (ev):

   -46.6919 -23.0017 -22.9251 -22.9158  -7.3935  -6.5845  -6.4766  -5.6099
    -5.6036  -5.5933  -5.4705  -5.4534   3.4590   6.4418   6.5500   6.8933
     7.9297   8.1609   8.5188   8.8092   8.8738   9.1237  12.2449  12.5956
    12.6750  14.2817

          k = 0.0500 0.1500 0.2500 (  5245 PWs)   bands (ev):

   -46.6916 -23.0012 -22.9397 -22.9152  -7.2721  -6.5341  -6.4419  -5.6242
    -5.6115  -5.5928  -5.5016  -5.4457   3.1922   6.3919   6.6646   6.8491
     7.7593   7.9905   8.4016   8.6396   8.8557   9.2624  12.5855  12.6935
    12.9428  14.3435

          k = 0.0500 0.1500 0.3500 (  5230 PWs)   bands (ev):

   -46.6914 -23.0006 -22.9542 -22.9147  -7.1475  -6.4815  -6.4043  -5.6412
    -5.6192  -5.5925  -5.5280  -5.4442   2.9653   6.1200   6.7688   6.9293
     7.5176   7.8305   8.3344   8.6447   8.8373   9.4750  12.5887  13.0796
    13.2756  13.8054

          k = 0.0500 0.1500 0.4500 (  5238 PWs)   bands (ev):

   -46.6912 -23.0002 -22.9632 -22.9144  -7.0689  -6.4480  -6.3787  -5.6551
    -5.6266  -5.5922  -5.5365  -5.4481   2.8417   5.8678   6.8975   7.0776
     7.3448   7.5782   8.3720   8.7108   8.8086   9.6445  12.5722  13.3065
    13.3463  13.5090

          k = 0.0500 0.2500 0.2500 (  5229 PWs)   bands (ev):

   -46.6914 -23.0161 -22.9391 -22.9147  -7.1378  -6.5205  -6.4016  -5.6278
    -5.6154  -5.5989  -5.4810  -5.4578   2.9916   6.2709   6.6459   6.7887
     7.5446   7.7133   8.1879   8.6071   9.0254   9.3890  12.6686  12.9739
    13.2051  14.3294

          k = 0.0500 0.2500 0.3500 (  5247 PWs)   bands (ev):

   -46.6911 -23.0154 -22.9535 -22.9141  -7.0335  -6.4877  -6.3549  -5.6368
    -5.6183  -5.6002  -5.4916  -5.4381   2.8174   6.0879   6.5279   6.8827
     7.3476   7.6722   8.0915   8.4365   9.1211   9.3883  12.9470  13.0764
    13.4568  14.0808

          k = 0.0500 0.2500 0.4500 (  5250 PWs)   bands (ev):

   -46.6909 -23.0150 -22.9625 -22.9138  -6.9734  -6.4662  -6.3177  -5.6429
    -5.6250  -5.6016  -5.4856  -5.4350   2.7179   5.8639   6.5577   6.8899
     7.2595   7.6848   8.0107   8.4406   9.1183   9.3626  12.9480  13.2949
    13.6441  13.9082

          k = 0.0500 0.3500 0.3500 (  5252 PWs)   bands (ev):

   -46.6908 -23.0302 -22.9529 -22.9136  -6.9404  -6.4624  -6.2981  -5.6357
    -5.6211  -5.6014  -5.5153  -5.3831   2.6733   5.9133   6.2772   6.8847
     7.2745   7.5280   7.9780   8.3652   9.0397   9.4730  13.0429  13.3270
    13.6452  14.3698

          k = 0.0500 0.3500 0.4500 (  5246 PWs)   bands (ev):

   -46.6906 -23.0298 -22.9617 -22.9132  -6.9133  -6.4314  -6.2495  -5.6368
    -5.6236  -5.6050  -5.5234  -5.3512   2.5946   5.7918   6.1545   6.9446
     7.1117   7.7038   7.8882   8.2462   8.8242   9.5569  13.2695  13.3236
    13.8011  14.4342

          k = 0.0500 0.4500 0.4500 (  5258 PWs)   bands (ev):

   -46.6904 -23.0388 -22.9613 -22.9129  -6.8977  -6.3803  -6.2027  -5.6392
    -5.6229  -5.6039  -5.5490  -5.3034   2.5189   5.6164   6.0437   6.9438
     7.0806   7.6690   7.9293   8.1623   8.5049   9.7258  13.2581  13.5470
    13.9105  14.7490

          k = 0.1500 0.1500 0.1500 (  5233 PWs)   bands (ev):

   -46.6918 -23.0014 -22.9249 -22.9247  -7.3234  -6.5615  -6.4561  -5.6172
    -5.6088  -5.5922  -5.4693  -5.4538   3.3251   6.4270   6.4671   6.9955
     7.7791   7.9092   8.4977   8.8698   8.9778   8.9951  12.4595  12.6593
    12.6894  14.7570

          k = 0.1500 0.1500 0.2500 (  5249 PWs)   bands (ev):

   -46.6915 -23.0008 -22.9393 -22.9242  -7.2098  -6.5220  -6.4218  -5.6300
    -5.6098  -5.5882  -5.4848  -5.4461   3.1212   6.3628   6.4732   6.8695
     7.5571   7.7052   8.5108   8.7711   8.9551   9.1715  12.6266  12.8164
    12.9378  14.4964

          k = 0.1500 0.1500 0.3500 (  5244 PWs)   bands (ev):

   -46.6912 -23.0002 -22.9538 -22.9237  -7.0975  -6.4791  -6.3846  -5.6414
    -5.6034  -5.5812  -5.5066  -5.4443   2.9347   6.1219   6.4906   6.7873
     7.3413   7.7518   8.2725   8.8205   8.9659   9.3524  12.5715  13.1332
    13.2647  14.0089

          k = 0.1500 0.1500 0.4500 (  5231 PWs)   bands (ev):

   -46.6910 -22.9999 -22.9628 -22.9233  -7.0296  -6.4508  -6.3588  -5.6462
    -5.5988  -5.5731  -5.5216  -5.4492   2.8287   5.8730   6.4996   6.8409
     7.2326   7.8665   8.0357   8.8917   8.9497   9.4393  12.5103  13.3414
    13.4900  13.7755

          k = 0.1500 0.2500 0.2500 (  5231 PWs)   bands (ev):

   -46.6912 -23.0157 -22.9387 -22.9237  -7.0739  -6.5138  -6.4056  -5.6321
    -5.6181  -5.5747  -5.4626  -5.4410   2.9862   6.2291   6.3539   6.7005
     7.2727   7.5141   8.4499   8.8044   9.0647   9.2521  12.7075  12.9770
    13.1607  14.3062

          k = 0.1500 0.2500 0.3500 (  5243 PWs)   bands (ev):

   -46.6909 -23.0151 -22.9532 -22.9231  -6.9750  -6.4980  -6.3650  -5.6347
    -5.6086  -5.5640  -5.4650  -5.4229   2.8602   6.0711   6.3194   6.4968
     6.9872   7.5507   8.4542   8.6626   9.1039   9.2720  12.8162  13.1070
    13.3972  14.2624

          k = 0.1500 0.2500 0.4500 (  5235 PWs)   bands (ev):

   -46.6907 -23.0147 -22.9621 -22.9228  -6.9193  -6.4915  -6.3289  -5.6338
    -5.6001  -5.5596  -5.4594  -5.4214   2.7834   5.8637   6.2928   6.4493
     6.8940   7.6454   8.2726   8.7486   9.0073   9.2806  12.8156  13.2890
    13.5859  14.2980

          k = 0.1500 0.3500 0.3500 (  5247 PWs)   bands (ev):

   -46.6906 -23.0298 -22.9525 -22.9225  -6.8710  -6.4905  -6.3431  -5.6317
    -5.6019  -5.5437  -5.4725  -5.3677   2.7735   5.8899   6.2104   6.2852
     6.7128   7.5153   8.3166   8.6650   8.9263   9.4474  12.9629  13.2559
    13.5616  14.5512

          k = 0.1500 0.3500 0.4500 (  5234 PWs)   bands (ev):

   -46.6904 -23.0294 -22.9614 -22.9222  -6.8436  -6.4818  -6.2992  -5.6280
    -5.5854  -5.5458  -5.4739  -5.3360   2.7240   5.7816   6.0964   6.2826
     6.5281   7.5807   8.2181   8.6033   8.7361   9.5510  13.1673  13.2725
    13.7066  14.7741

          k = 0.1500 0.4500 0.4500 (  5254 PWs)   bands (ev):

   -46.6903 -23.0385 -22.9610 -22.9218  -6.8237  -6.4422  -6.2817  -5.6256
    -5.5674  -5.5310  -5.4950  -5.2871   2.6808   5.6025   6.0113   6.2758
     6.4007   7.5818   7.9551   8.5109   8.6972   9.7121  13.2384  13.4412
    13.8065  15.1017

          k = 0.2500 0.2500 0.2500 (  5226 PWs)   bands (ev):

   -46.6909 -23.0151 -22.9383 -22.9380  -6.9785  -6.5006  -6.4040  -5.6227
    -5.6187  -5.5446  -5.4396  -5.4160   2.9622   6.0788   6.1426   6.5551
     7.0338   7.0937   8.5856   9.0159   9.0667   9.2118  12.7207  13.1289
    13.1354  14.3301

          k = 0.2500 0.2500 0.3500 (  5244 PWs)   bands (ev):

   -46.6906 -23.0145 -22.9526 -22.9375  -6.8988  -6.4916  -6.3795  -5.6178
    -5.6044  -5.5091  -5.4222  -5.3985   2.9203   5.9464   6.0083   6.2508
     6.7697   7.0540   8.4059   9.0005   9.1001   9.3434  12.7858  13.1904
    13.3792  14.5228

          k = 0.2500 0.2500 0.4500 (  5239 PWs)   bands (ev):

   -46.6904 -23.0141 -22.9614 -22.9372  -6.8600  -6.4915  -6.3470  -5.6142
    -5.5937  -5.4748  -5.4184  -5.3939   2.8868   5.8378   5.8873   6.0987
     6.7033   7.0937   8.1741   9.0266   9.0649   9.4003  12.8736  13.2862
    13.5656  14.7694

          k = 0.2500 0.3500 0.3500 (  5243 PWs)   bands (ev):

   -46.6903 -23.0292 -22.9519 -22.9370  -6.7716  -6.5177  -6.4032  -5.6112
    -5.5877  -5.4697  -5.3982  -5.3386   2.9472   5.7189   5.8447   6.0379
     6.4603   6.9418   7.9578   9.0807   9.2502   9.4485  12.9338  13.3130
    13.5079  14.8441

          k = 0.2500 0.3500 0.4500 (  5231 PWs)   bands (ev):

   -46.6902 -23.0288 -22.9608 -22.9366  -6.7453  -6.5332  -6.3664  -5.6053
    -5.5735  -5.4432  -5.3864  -5.3072   2.9632   5.6951   5.7332   5.8534
     6.2878   6.9652   7.6072   9.1047   9.2402   9.5561  13.1513  13.3123
    13.6473  15.1801

          k = 0.2500 0.4500 0.4500 (  5237 PWs)   bands (ev):

   -46.6900 -23.0379 -22.9604 -22.9362  -6.7048  -6.5227  -6.3785  -5.6015
    -5.5577  -5.4225  -5.3685  -5.2562   2.9988   5.5176   5.7041   5.7791
     6.1025   6.9403   7.1620   9.1014   9.2841   9.6981  13.2905  13.4279
    13.7379  15.5098

          k = 0.3500 0.3500 0.3500 (  5250 PWs)   bands (ev):

   -46.6900 -23.0286 -22.9514 -22.9513  -6.7139  -6.5101  -6.4411  -5.5898
    -5.5780  -5.3992  -5.3315  -5.3031   3.1345   5.4705   5.5586   5.8878
     6.4010   6.4659   7.3426   9.3469   9.4386   9.5625  13.0904  13.4828
    13.4830  15.2044

          k = 0.3500 0.3500 0.4500 (  5247 PWs)   bands (ev):

   -46.6899 -23.0282 -22.9602 -22.9510  -6.7074  -6.5125  -6.4231  -5.5809
    -5.5683  -5.3500  -5.3041  -5.2737   3.2545   5.3658   5.4270   5.7241
     6.2483   6.4426   6.8730   9.4028   9.5088   9.6731  13.3020  13.4464
    13.6357  15.5768

          k = 0.3500 0.4500 0.4500 (  5243 PWs)   bands (ev):

   -46.6897 -23.0373 -22.9598 -22.9506  -6.6131  -6.5630  -6.4555  -5.5777
    -5.5543  -5.3225  -5.2588  -5.2188   3.4476   5.2166   5.3490   5.5738
     6.0671   6.2765   6.4144   9.4963   9.6550   9.6919  13.4525  13.5485
    13.7053  15.9331

          k = 0.4500 0.4500 0.4500 (  5268 PWs)   bands (ev):

   -46.6895 -23.0369 -22.9594 -22.9594  -6.6367  -6.5070  -6.4937  -5.5644
    -5.5513  -5.2638  -5.1976  -5.1915   3.9074   5.0421   5.1119   5.4800
     5.5599   6.0552   6.1673   9.6716   9.6844   9.8256  13.6158  13.6809
    13.6848  16.2786

          k =-0.0500 0.1500 0.0500 (  5240 PWs)   bands (ev):

   -46.6921 -23.0021 -22.9161 -22.9161  -7.4670  -6.6145  -6.4971  -5.6026
    -5.5958  -5.5935  -5.4657  -5.4467   3.6503   6.4785   6.4880   6.7473
     8.1838   8.2105   8.6662   8.7390   9.0692   9.0920  11.9432  12.5850
    12.6002  13.9917

          k =-0.0500 0.2500 0.0500 (  5229 PWs)   bands (ev):

   -46.6918 -23.0171 -22.9156 -22.9155  -7.3155  -6.5856  -6.4390  -5.6102
    -5.6024  -5.6013  -5.5240  -5.4441   3.3073   6.4244   6.5807   6.7128
     7.9210   7.9508   8.6892   8.7505   9.1381   9.1899  11.9462  12.9570
    12.9801  13.9956

          k =-0.0500 0.3500 0.0500 (  5230 PWs)   bands (ev):

   -46.6915 -23.0320 -22.9150 -22.9150  -7.1493  -6.5659  -6.3715  -5.6352
    -5.6092  -5.6010  -5.5810  -5.4438   3.0296   6.0511   6.6894   6.8037
     7.6783   7.6922   8.6281   8.9782   9.1892   9.5209  11.9482  13.3124
    13.3411  13.7176

          k =-0.0500 0.4500 0.0500 (  5242 PWs)   bands (ev):

   -46.6914 -23.0411 -22.9147 -22.9146  -7.0344  -6.5629  -6.3226  -5.6701
    -5.6130  -5.6041  -5.6005  -5.4450   2.8817   5.7610   6.7727   6.9249
     7.5009   7.5241   8.5884   9.0718   9.2232   9.9340  11.9468  13.0091
    13.5253  13.5605

          k = 0.1500 0.0500 0.1500 (  5233 PWs)   bands (ev):

   -46.6919 -22.9921 -22.9253 -22.9250  -7.4089  -6.5765  -6.4746  -5.6162
    -5.5951  -5.5928  -5.4797  -5.4457   3.4663   6.4402   6.6154   6.8782
     7.9831   8.0985   8.5452   8.7793   8.9399   9.0589  12.4148  12.4695
    12.5076  14.4915

          k =-0.0500 0.2500 0.1500 (  5245 PWs)   bands (ev):

   -46.6916 -23.0167 -22.9245 -22.9152  -7.2470  -6.5588  -6.4296  -5.6208
    -5.6086  -5.5996  -5.4933  -5.4583   3.1817   6.3405   6.6069   6.8358
     7.6689   7.9306   8.4040   8.8395   8.9304   9.3052  12.2440  12.9645
    13.0192  14.3064

          k = 0.2500 0.0500 0.1500 (  5245 PWs)   bands (ev):

   -46.6916 -22.9916 -22.9397 -22.9246  -7.2927  -6.5282  -6.4294  -5.6256
    -5.6027  -5.5929  -5.5086  -5.4476   3.2004   6.4144   6.6646   6.8591
     7.7571   7.8667   8.4559   8.7557   8.9474   9.1685  12.4439  12.7645
    12.8585  14.5142

          k =-0.0500 0.3500 0.1500 (  5230 PWs)   bands (ev):

   -46.6914 -23.0315 -22.9240 -22.9147  -7.0899  -6.5388  -6.3765  -5.6429
    -5.6083  -5.6042  -5.5239  -5.4575   2.9431   6.0208   6.6320   6.8744
     7.4552   7.7147   8.4779   8.8292   8.9907   9.5679  12.2371  13.3132
    13.3548  13.8907

          k = 0.3500 0.0500 0.1500 (  5230 PWs)   bands (ev):

   -46.6914 -22.9910 -22.9542 -22.9240  -7.1762  -6.4668  -6.3880  -5.6396
    -5.6068  -5.5925  -5.5453  -5.4466   2.9733   6.1345   6.7108   6.9777
     7.4878   7.8438   8.1915   8.8139   8.9633   9.4358  12.4261  13.1355
    13.2130  13.8594

          k =-0.0500 0.4500 0.1500 (  5238 PWs)   bands (ev):

   -46.6912 -23.0407 -22.9236 -22.9143  -6.9849  -6.5310  -6.3401  -5.6633
    -5.6097  -5.6070  -5.5344  -5.4618   2.8116   5.7449   6.6579   6.9862
     7.3230   7.5479   8.5775   8.8071   9.0300   9.7709  12.2245  13.3817
    13.5397  13.5895

          k = 0.4500 0.0500 0.1500 (  5238 PWs)   bands (ev):

   -46.6912 -22.9907 -22.9632 -22.9237  -7.1050  -6.4114  -6.3731  -5.6541
    -5.6097  -5.5922  -5.5627  -5.4489   2.8492   5.8717   6.8320   7.0632
     7.4095   7.6395   8.1339   8.8060   8.9995   9.6710  12.3887  13.3649
    13.3882  13.4487

          k = 0.2500 0.0500 0.2500 (  5229 PWs)   bands (ev):

   -46.6914 -22.9910 -22.9393 -22.9389  -7.1989  -6.4887  -6.3788  -5.6253
    -5.6050  -5.5969  -5.4832  -5.4743   3.0116   6.3782   6.5775   6.8741
     7.4724   7.5591   8.5004   8.5596   9.1557   9.2099  12.6920  12.8149
    13.1135  14.4421

          k =-0.0500 0.3500 0.2500 (  5247 PWs)   bands (ev):

   -46.6911 -23.0309 -22.9385 -22.9141  -7.0048  -6.5010  -6.3549  -5.6378
    -5.6172  -5.6020  -5.4947  -5.4402   2.8058   5.9779   6.5589   6.8053
     7.3669   7.6350   8.0516   8.6509   9.0747   9.4832  12.6578  13.3285
    13.4615  14.1547

          k = 0.3500 0.0500 0.2500 (  5247 PWs)   bands (ev):

   -46.6911 -22.9905 -22.9536 -22.9385  -7.1157  -6.4259  -6.3307  -5.6306
    -5.6064  -5.5978  -5.4964  -5.4666   2.8369   6.1404   6.5014   6.8909
     7.2888   7.5507   8.1769   8.6488   9.1441   9.3898  12.7158  13.1373
    13.3800  14.1423

          k =-0.0500 0.4500 0.2500 (  5250 PWs)   bands (ev):

   -46.6909 -23.0400 -22.9381 -22.9138  -6.9268  -6.4783  -6.3256  -5.6499
    -5.6166  -5.6074  -5.4952  -5.4335   2.6984   5.7143   6.5651   6.7836
     7.3295   7.5615   8.0551   8.6956   9.0335   9.5286  12.6474  13.5467
    13.6132  14.0413

          k = 0.4500 0.0500 0.2500 (  5250 PWs)   bands (ev):

   -46.6909 -22.9901 -22.9625 -22.9381  -7.0714  -6.3634  -6.3113  -5.6392
    -5.6075  -5.6017  -5.4904  -5.4708   2.7363   5.8759   6.5875   6.7761
     7.3254   7.6624   7.8738   8.7339   9.0659   9.5024  12.6958  13.3822
    13.5584  13.9508

          k = 0.3500 0.0500 0.3500 (  5252 PWs)   bands (ev):

   -46.6908 -22.9899 -22.9530 -22.9528  -7.0756  -6.3509  -6.2715  -5.6259
    -5.6109  -5.5955  -5.5158  -5.4269   2.7030   6.0614   6.2429   6.8620
     7.0467   7.5520   8.2069   8.3843   9.0434   9.5475  13.0441  13.1711
    13.5669  14.3797

          k =-0.0500 0.4500 0.3500 (  5246 PWs)   bands (ev):

   -46.6906 -23.0393 -22.9525 -22.9132  -6.9003  -6.4206  -6.2619  -5.6409
    -5.6218  -5.6050  -5.5283  -5.3500   2.5867   5.6713   6.2467   6.8274
     7.2749   7.5420   7.8890   8.3844   8.8181   9.5961  13.0358  13.5484
    13.7789  14.5524

          k = 0.4500 0.0500 0.3500 (  5246 PWs)   bands (ev):

   -46.6906 -22.9896 -22.9618 -22.9525  -7.0605  -6.2789  -6.2419  -5.6287
    -5.6090  -5.6022  -5.5278  -5.3993   2.6222   5.8321   6.2474   6.7540
     7.0166   7.7120   7.9728   8.4076   8.8524   9.6855  13.0906  13.3748
    13.6998  14.4686

          k = 0.4500 0.0500 0.4500 (  5258 PWs)   bands (ev):

   -46.6904 -22.9892 -22.9614 -22.9614  -7.0625  -6.2088  -6.1967  -5.6277
    -5.6063  -5.6014  -5.5569  -5.3565   2.5515   5.7124   6.1297   6.7918
     6.8133   7.8552   8.0464   8.1532   8.5997   9.8506  13.3546  13.3778
    13.7936  14.6838

          k =-0.1500 0.2500 0.1500 (  5249 PWs)   bands (ev):

   -46.6915 -23.0163 -22.9243 -22.9241  -7.1797  -6.5394  -6.4250  -5.6287
    -5.6161  -5.5867  -5.4703  -5.4591   3.1094   6.3337   6.3936   6.8797
     7.5598   7.7271   8.3370   8.9246   9.0350   9.1842  12.4335  12.9764
    13.0255  14.5170

          k =-0.1500 0.3500 0.1500 (  5244 PWs)   bands (ev):

   -46.6912 -23.0311 -22.9237 -22.9236  -7.0277  -6.5210  -6.3923  -5.6460
    -5.6130  -5.5735  -5.4912  -5.4580   2.9106   6.0223   6.3440   6.8150
     7.4139   7.7168   8.1696   8.9395   9.0818   9.4218  12.3753  13.3049
    13.3355  14.0485

          k =-0.1500 0.4500 0.1500 (  5231 PWs)   bands (ev):

   -46.6910 -23.0403 -22.9233 -22.9232  -6.9282  -6.5126  -6.3712  -5.6552
    -5.6109  -5.5582  -5.5065  -5.4647   2.7967   5.7473   6.3053   6.8689
     7.3491   7.6939   8.1205   8.9363   9.1102   9.5342  12.3217  13.5142
    13.5320  13.8353

          k = 0.2500 0.1500 0.2500 (  5231 PWs)   bands (ev):

   -46.6912 -23.0002 -22.9389 -22.9386  -7.1154  -6.4938  -6.3884  -5.6282
    -5.6152  -5.5736  -5.4651  -5.4486   2.9992   6.2775   6.3839   6.6943
     7.2178   7.4898   8.5976   8.8022   9.0575   9.1737  12.7532  12.9176
    13.0822  14.3170

          k =-0.1500 0.3500 0.2500 (  5243 PWs)   bands (ev):

   -46.6909 -23.0305 -22.9381 -22.9231  -6.9384  -6.5014  -6.3879  -5.6381
    -5.6141  -5.5540  -5.4664  -5.4251   2.8474   5.9747   6.2298   6.5315
     7.1340   7.5208   8.2262   8.9035   9.1018   9.3125  12.6471  13.2762
    13.4023  14.2891

          k = 0.3500 0.1500 0.2500 (  5243 PWs)   bands (ev):

   -46.6909 -22.9997 -22.9532 -22.9381  -7.0330  -6.4519  -6.3524  -5.6300
    -5.6084  -5.5535  -5.4635  -5.4464   2.8734   6.1102   6.2947   6.4841
     7.0270   7.4777   8.4500   8.8117   9.0252   9.3308  12.7274  13.1456
    13.3401  14.2717

          k =-0.1500 0.4500 0.2500 (  5235 PWs)   bands (ev):

   -46.6907 -23.0396 -22.9377 -22.9227  -6.8584  -6.4852  -6.3787  -5.6408
    -5.6099  -5.5342  -5.4758  -5.4180   2.7621   5.7216   6.1341   6.5292
     7.1114   7.6008   8.0489   8.9575   9.0429   9.3377  12.6232  13.4884
    13.5796  14.3670

          k = 0.4500 0.1500 0.2500 (  5235 PWs)   bands (ev):

   -46.6907 -22.9993 -22.9621 -22.9378  -6.9900  -6.4189  -6.3269  -5.6300
    -5.6022  -5.5355  -5.4637  -5.4523   2.7961   5.8733   6.2434   6.4565
     6.9842   7.5357   8.2773   8.8645   8.9359   9.4002  12.7051  13.3400
    13.5341  14.3096

          k = 0.3500 0.1500 0.3500 (  5247 PWs)   bands (ev):

   -46.6906 -22.9991 -22.9526 -22.9525  -6.9925  -6.3940  -6.3193  -5.6218
    -5.6018  -5.5313  -5.4622  -5.4114   2.7996   6.0446   6.1223   6.2904
     6.6722   7.4480   8.4460   8.6989   8.8426   9.5504  12.9575  13.1860
    13.4995  14.5427

          k =-0.1500 0.4500 0.3500 (  5234 PWs)   bands (ev):

   -46.6904 -23.0389 -22.9521 -22.9222  -6.8260  -6.4592  -6.3323  -5.6307
    -5.5935  -5.5207  -5.4918  -5.3342   2.7152   5.6606   6.1672   6.1944
     6.6820   7.5432   8.1137   8.6402   8.8259   9.5622  12.9913  13.4570
    13.6963  14.8336

          k = 0.4500 0.1500 0.3500 (  5234 PWs)   bands (ev):

   -46.6904 -22.9987 -22.9614 -22.9522  -6.9789  -6.3467  -6.2958  -5.6186
    -5.5909  -5.5159  -5.4727  -5.3850   2.7492   5.8246   6.1337   6.1968
     6.5624   7.4815   8.2740   8.6527   8.7542   9.6775  13.0473  13.3240
    13.6393  14.7837

          k = 0.4500 0.1500 0.4500 (  5254 PWs)   bands (ev):

   -46.6903 -22.9984 -22.9610 -22.9610  -6.9827  -6.2875  -6.2766  -5.6142
    -5.5723  -5.5022  -5.4905  -5.3424   2.7134   5.7023   6.0880   6.2052
     6.2849   7.4992   8.0494   8.6344   8.6425   9.8458  13.2949  13.3345
    13.7340  15.0839

          k =-0.2500 0.3500 0.2500 (  5244 PWs)   bands (ev):

   -46.6906 -23.0298 -22.9376 -22.9374  -6.8422  -6.5024  -6.4197  -5.6239
    -5.6050  -5.5076  -5.4243  -5.3895   2.9053   5.8674   5.9661   6.2602
     6.9556   6.9763   8.3096   9.0516   9.1806   9.2838  12.7216  13.2804
    13.3922  14.5306

          k =-0.2500 0.4500 0.2500 (  5239 PWs)   bands (ev):

   -46.6904 -23.0389 -22.9372 -22.9371  -6.7625  -6.4967  -6.4295  -5.6226
    -5.5962  -5.4673  -5.4316  -5.3751   2.8618   5.7336   5.7398   6.2105
     6.9302   7.0035   8.0717   9.0145   9.2102   9.3343  12.7681  13.4313
    13.5793  14.8068

          k = 0.3500 0.2500 0.3500 (  5243 PWs)   bands (ev):

   -46.6903 -23.0139 -22.9520 -22.9519  -6.8553  -6.4550  -6.3850  -5.6010
    -5.5946  -5.4564  -5.3793  -5.3777   2.9641   5.7915   5.7975   6.0412
     6.5036   6.8564   7.9871   9.1153   9.1544   9.5557  12.9357  13.2893
    13.4752  14.8388

          k =-0.2500 0.4500 0.3500 (  5231 PWs)   bands (ev):

   -46.6902 -23.0383 -22.9515 -22.9366  -6.7091  -6.5125  -6.4189  -5.6081
    -5.5749  -5.4378  -5.3915  -5.3028   2.9518   5.5521   5.7399   5.9101
     6.3983   6.9276   7.5962   9.0757   9.2868   9.5451  13.0526  13.4292
    13.6470  15.1948

          k = 0.4500 0.2500 0.3500 (  5231 PWs)   bands (ev):

   -46.6902 -23.0135 -22.9608 -22.9516  -6.8448  -6.4366  -6.3651  -5.5964
    -5.5815  -5.4116  -5.3797  -5.3506   2.9810   5.6614   5.7777   5.8198
     6.3890   6.8539   7.6386   9.1421   9.1629   9.6730  13.1108  13.3317
    13.6149  15.1761

          k = 0.4500 0.2500 0.4500 (  5237 PWs)   bands (ev):

   -46.6900 -23.0131 -22.9604 -22.9604  -6.8522  -6.3846  -6.3742  -5.5902
    -5.5676  -5.3748  -5.3639  -5.3146   3.0300   5.6212   5.6559   5.7023
     6.1677   6.8293   7.2263   9.1750   9.1788   9.8380  13.3221  13.3770
    13.6928  15.4935

          k =-0.3500 0.4500 0.3500 (  5247 PWs)   bands (ev):

   -46.6899 -23.0376 -22.9510 -22.9509  -6.6181  -6.5490  -6.4724  -5.5872
    -5.5635  -5.3664  -5.3004  -5.2588   3.2373   5.2873   5.5438   5.6634
     6.2641   6.4575   6.8671   9.4303   9.5515   9.5762  13.2526  13.5110
    13.6445  15.5791

          k = 0.4500 0.3500 0.4500 (  5243 PWs)   bands (ev):

   -46.6897 -23.0278 -22.9598 -22.9598  -6.7201  -6.4629  -6.4519  -5.5662
    -5.5655  -5.2907  -5.2566  -5.2539   3.4723   5.2488   5.2550   5.6046
     6.1658   6.2752   6.3345   9.5208   9.5294   9.8304  13.4763  13.5348
    13.6744  15.9281

     the Fermi energy is     9.9060 ev

!    total energy              =    -364.95418022 Ry
     Harris-Foulkes estimate   =    -364.95418022 Ry
     estimated scf accuracy    <          2.1E-09 Ry

     The total energy is the sum of the following terms:

     one-electron contribution =     -87.70146362 Ry
     hartree contribution      =      72.41142928 Ry
     xc contribution           =     -85.72566837 Ry
     ewald contribution        =    -263.94490001 Ry
     smearing contrib. (-TS)   =       0.00642249 Ry

     convergence has been achieved in   7 iterations

     Forces acting on atoms (cartesian axes, Ry/au):

     atom    1 type  1   force =     0.00000000    0.01554737    0.00000000
     atom    2 type  2   force =     0.00000000   -0.02025024    0.00000000
     atom    3 type  3   force =     0.00000000    0.00424343    0.00000000
     atom    4 type  3   force =     0.00000000   -0.00378400    0.00000000
     atom    5 type  3   force =     0.00000000    0.00424343    0.00000000

     Total force =     0.021457     Total SCF correction =     0.000203


     Computing stress (Cartesian axis) and pressure

          total   stress  (Ry/bohr**3)                   (kbar)     P=  -35.15
  -0.00031374   0.00000000   0.00000000        -46.15      0.00      0.00
   0.00000000  -0.00008943   0.00000000          0.00    -13.16      0.00
   0.00000000   0.00000000  -0.00031374          0.00      0.00    -46.15


     number of scf cycles    =   2
     number of bfgs steps    =   1

     energy   old            =    -364.9534780889 Ry
     energy   new            =    -364.9541802206 Ry

     CASE: energy  _new < energy  _old

     new trust radius        =       0.0300010624 bohr
     new conv_thr            =       0.0000000007 Ry


ATOMIC_POSITIONS (crystal)
Pb       0.000000000   0.000000000   0.000000000    0   0   0
Ti       0.500000000   0.540433982   0.500000000
O        0.500000000   0.501562431   0.000000000
O        0.500000000  -0.000835585   0.500000000
O        0.000000000   0.501562431   0.500000000



     Writing output data file PbTiO3.save/
     NEW-OLD atomic charge density approx. for the potential

     Check: negative core charge=   -0.000005

     total cpu time spent up to now is      828.5 secs

     Self-consistent Calculation

     iteration #  1     ecut=    80.00 Ry     beta= 0.70
     Davidson diagonalization with overlap
     ethr =  1.00E-06,  avg # of iterations =  4.2

     total cpu time spent up to now is      891.4 secs

     total energy              =    -364.95472038 Ry
     Harris-Foulkes estimate   =    -364.95478277 Ry
     estimated scf accuracy    <       0.00010524 Ry

     iteration #  2     ecut=    80.00 Ry     beta= 0.70
     Davidson diagonalization with overlap
     ethr =  2.39E-07,  avg # of iterations =  3.9

     total cpu time spent up to now is      933.2 secs

     total energy              =    -364.95469880 Ry
     Harris-Foulkes estimate   =    -364.95480184 Ry
     estimated scf accuracy    <       0.00025258 Ry

     iteration #  3     ecut=    80.00 Ry     beta= 0.70
     Davidson diagonalization with overlap
     ethr =  2.39E-07,  avg # of iterations =  3.8

     total cpu time spent up to now is      971.8 secs

     total energy              =    -364.95475166 Ry
     Harris-Foulkes estimate   =    -364.95476311 Ry
     estimated scf accuracy    <       0.00003490 Ry

     iteration #  4     ecut=    80.00 Ry     beta= 0.70
     Davidson diagonalization with overlap
     ethr =  7.93E-08,  avg # of iterations =  2.8

     total cpu time spent up to now is     1005.5 secs

     total energy              =    -364.95475699 Ry
     Harris-Foulkes estimate   =    -364.95475746 Ry
     estimated scf accuracy    <       0.00000100 Ry

     iteration #  5     ecut=    80.00 Ry     beta= 0.70
     Davidson diagonalization with overlap
     ethr =  2.28E-09,  avg # of iterations =  3.5

     total cpu time spent up to now is     1045.8 secs

     total energy              =    -364.95475739 Ry
     Harris-Foulkes estimate   =    -364.95475742 Ry
     estimated scf accuracy    <       0.00000008 Ry

     iteration #  6     ecut=    80.00 Ry     beta= 0.70
     Davidson diagonalization with overlap
     ethr =  1.72E-10,  avg # of iterations =  3.4

     total cpu time spent up to now is     1084.8 secs

     total energy              =    -364.95475740 Ry
     Harris-Foulkes estimate   =    -364.95475743 Ry
     estimated scf accuracy    <       0.00000009 Ry

     iteration #  7     ecut=    80.00 Ry     beta= 0.70
     Davidson diagonalization with overlap
     ethr =  1.72E-10,  avg # of iterations =  3.0

     total cpu time spent up to now is     1118.7 secs

     total energy              =    -364.95475741 Ry
     Harris-Foulkes estimate   =    -364.95475742 Ry
     estimated scf accuracy    <          1.0E-08 Ry

     iteration #  8     ecut=    80.00 Ry     beta= 0.70
     Davidson diagonalization with overlap
     ethr =  2.27E-11,  avg # of iterations =  2.6

     total cpu time spent up to now is     1151.5 secs

     End of self-consistent calculation

          k = 0.0500 0.0500 0.0500 (  5245 PWs)   bands (ev):

   -46.7162 -23.0043 -22.9400 -22.9399  -7.5542  -6.6307  -6.5392  -5.5968
    -5.5840  -5.5837  -5.4451  -5.4301   3.9213   6.4372   6.4713   6.5874
     8.4280   8.4523   8.7561   8.8410   9.0584   9.0645  11.9244  12.2641
    12.2678  13.9590

          k = 0.0500 0.0500 0.1500 (  5240 PWs)   bands (ev):

   -46.7161 -23.0040 -22.9490 -22.9396  -7.4779  -6.5988  -6.5121  -5.6035
    -5.5906  -5.5833  -5.4739  -5.4301   3.6621   6.4861   6.5459   6.7424
     8.2054   8.3707   8.6965   8.7622   8.9178   9.0440  12.2257  12.2747
    12.4077  14.1193

          k = 0.0500 0.0500 0.2500 (  5229 PWs)   bands (ev):

   -46.7158 -23.0035 -22.9637 -22.9391  -7.3505  -6.5425  -6.4689  -5.6148
    -5.6013  -5.5826  -5.5279  -5.4271   3.3300   6.4663   6.6639   6.7772
     8.0340   8.1340   8.6164   8.6988   8.8654   9.1072  12.2720  12.6733
    12.7538  14.1250

          k = 0.0500 0.0500 0.3500 (  5230 PWs)   bands (ev):

   -46.7155 -23.0029 -22.9782 -22.9386  -7.2172  -6.4776  -6.4280  -5.6319
    -5.6125  -5.5822  -5.5816  -5.4260   3.0648   6.1184   6.8446   6.9472
     7.7494   7.8511   8.5731   8.6509   8.9803   9.4317  12.2736  13.0754
    13.1414  13.6609

          k = 0.0500 0.0500 0.4500 (  5242 PWs)   bands (ev):

   -46.7153 -23.0026 -22.9872 -22.9383  -7.1315  -6.4269  -6.4088  -5.6576
    -5.6207  -5.6035  -5.5814  -5.4265   2.9253   5.8443   7.0399   7.2004
     7.4692   7.5327   8.5394   8.6653   9.0345   9.8341  12.2648  12.9713
    13.3129  13.3999

          k = 0.0500 0.1500 0.1500 (  5233 PWs)   bands (ev):

   -46.7159 -23.0133 -22.9487 -22.9393  -7.3926  -6.5795  -6.4860  -5.6040
    -5.5991  -5.5892  -5.4669  -5.4504   3.4660   6.4421   6.5534   6.8920
     7.9591   8.1905   8.5383   8.8208   8.8735   9.1177  12.2301  12.5258
    12.6295  14.2464

          k = 0.0500 0.1500 0.2500 (  5245 PWs)   bands (ev):

   -46.7156 -23.0127 -22.9633 -22.9388  -7.2698  -6.5300  -6.4503  -5.6189
    -5.6062  -5.5887  -5.4978  -5.4430   3.1990   6.3907   6.6650   6.8465
     7.7641   8.0063   8.4118   8.6639   8.8680   9.2607  12.5188  12.6781
    12.9170  14.3169

          k = 0.0500 0.1500 0.3500 (  5230 PWs)   bands (ev):

   -46.7153 -23.0121 -22.9778 -22.9382  -7.1438  -6.4787  -6.4112  -5.6364
    -5.6133  -5.5884  -5.5247  -5.4412   2.9722   6.1091   6.7630   6.9290
     7.5135   7.8322   8.3484   8.6816   8.8501   9.4785  12.5184  13.0720
    13.2564  13.8171

          k = 0.0500 0.1500 0.4500 (  5238 PWs)   bands (ev):

   -46.7151 -23.0117 -22.9868 -22.9379  -7.0645  -6.4462  -6.3842  -5.6507
    -5.6202  -5.5881  -5.5335  -5.4447   2.8487   5.8487   6.8896   7.0736
     7.3484   7.5705   8.3954   8.7431   8.8221   9.6514  12.5034  13.3035
    13.3545  13.4904

          k = 0.0500 0.2500 0.2500 (  5229 PWs)   bands (ev):

   -46.7153 -23.0275 -22.9627 -22.9382  -7.1387  -6.5138  -6.4097  -5.6228
    -5.6096  -5.5947  -5.4768  -5.4557   2.9992   6.2798   6.6419   6.7936
     7.5495   7.7174   8.2039   8.6047   9.0434   9.3801  12.6577  12.9154
    13.1822  14.3223

          k = 0.0500 0.2500 0.3500 (  5247 PWs)   bands (ev):

   -46.7150 -23.0269 -22.9772 -22.9377  -7.0339  -6.4809  -6.3611  -5.6317
    -5.6124  -5.5961  -5.4878  -5.4361   2.8244   6.0844   6.5202   6.8860
     7.3519   7.6728   8.0931   8.4540   9.1379   9.3853  12.8918  13.0671
    13.4415  14.0861

          k = 0.0500 0.2500 0.4500 (  5250 PWs)   bands (ev):

   -46.7149 -23.0265 -22.9861 -22.9374  -6.9741  -6.4582  -6.3234  -5.6383
    -5.6186  -5.5975  -5.4820  -5.4331   2.7245   5.8483   6.5544   6.8829
     7.2797   7.6756   8.0080   8.4654   9.1273   9.3711  12.8892  13.2930
    13.6299  13.9176

          k = 0.0500 0.3500 0.3500 (  5252 PWs)   bands (ev):

   -46.7147 -23.0416 -22.9765 -22.9371  -6.9463  -6.4496  -6.3048  -5.6304
    -5.6152  -5.5972  -5.5112  -5.3818   2.6805   5.9271   6.2537   6.8985
     7.2744   7.5293   7.9850   8.3578   9.0495   9.4751  13.0394  13.2765
    13.6358  14.3632

          k = 0.0500 0.3500 0.4500 (  5246 PWs)   bands (ev):

   -46.7146 -23.0412 -22.9854 -22.9368  -6.9198  -6.4167  -6.2557  -5.6318
    -5.6173  -5.6009  -5.5195  -5.3501   2.6007   5.7898   6.1412   6.9400
     7.1323   7.7011   7.8847   8.2489   8.8304   9.5668  13.2579  13.2859
    13.7922  14.4383

          k = 0.0500 0.4500 0.4500 (  5258 PWs)   bands (ev):

   -46.7144 -23.0503 -22.9850 -22.9364  -6.9066  -6.3626  -6.2095  -5.6338
    -5.6164  -5.6001  -5.5448  -5.3027   2.5247   5.6252   6.0210   6.9613
     7.0725   7.6896   7.9191   8.1474   8.5119   9.7348  13.2628  13.4997
    13.9066  14.7365

          k = 0.1500 0.1500 0.1500 (  5233 PWs)   bands (ev):

   -46.7157 -23.0129 -22.9484 -22.9482  -7.3213  -6.5572  -6.4653  -5.6115
    -5.6045  -5.5879  -5.4648  -5.4515   3.3317   6.4320   6.4652   6.9971
     7.8031   7.9155   8.5358   8.8778   8.9635   8.9912  12.4473  12.6176
    12.6406  14.7286

          k = 0.1500 0.1500 0.2500 (  5249 PWs)   bands (ev):

   -46.7154 -23.0123 -22.9629 -22.9478  -7.2058  -6.5191  -6.4301  -5.6250
    -5.6051  -5.5836  -5.4804  -5.4433   3.1273   6.3639   6.4733   6.8697
     7.5681   7.7057   8.5245   8.7815   8.9655   9.1635  12.5863  12.8043
    12.9106  14.5011

          k = 0.1500 0.1500 0.3500 (  5244 PWs)   bands (ev):

   -46.7151 -23.0118 -22.9774 -22.9472  -7.0913  -6.4783  -6.3915  -5.6368
    -5.5989  -5.5760  -5.5023  -5.4413   2.9406   6.1118   6.4889   6.7879
     7.3455   7.7568   8.2650   8.8453   8.9778   9.3495  12.5289  13.1298
    13.2432  14.0136

          k = 0.1500 0.1500 0.4500 (  5231 PWs)   bands (ev):

   -46.7150 -23.0114 -22.9864 -22.9469  -7.0220  -6.4518  -6.3644  -5.6418
    -5.5945  -5.5670  -5.5177  -5.4459   2.8347   5.8542   6.4958   6.8454
     7.2341   7.8730   8.0283   8.9113   8.9644   9.4400  12.4678  13.3410
    13.4689  13.7821

          k = 0.1500 0.2500 0.2500 (  5231 PWs)   bands (ev):

   -46.7151 -23.0272 -22.9623 -22.9472  -7.0729  -6.5079  -6.4137  -5.6270
    -5.6129  -5.5701  -5.4581  -5.4389   2.9933   6.2382   6.3614   6.6989
     7.2703   7.5040   8.4832   8.7917   9.0788   9.2405  12.7010  12.9378
    13.1356  14.3052

          k = 0.1500 0.2500 0.3500 (  5243 PWs)   bands (ev):

   -46.7149 -23.0266 -22.9768 -22.9467  -6.9727  -6.4932  -6.3713  -5.6298
    -5.6039  -5.5584  -5.4610  -5.4210   2.8667   6.0700   6.3205   6.4917
     6.9947   7.5370   8.4502   8.6837   9.1143   9.2704  12.7854  13.0965
    13.3776  14.2623

          k = 0.1500 0.2500 0.4500 (  5235 PWs)   bands (ev):

   -46.7147 -23.0262 -22.9857 -22.9463  -6.9166  -6.4866  -6.3344  -5.6291
    -5.5959  -5.5527  -5.4561  -5.4195   2.7895   5.8487   6.2875   6.4518
     6.9086   7.6307   8.2609   8.7725   9.0150   9.2882  12.7751  13.2895
    13.5671  14.3058

          k = 0.1500 0.3500 0.3500 (  5247 PWs)   bands (ev):

   -46.7146 -23.0413 -22.9761 -22.9461  -6.8749  -6.4792  -6.3492  -5.6265
[...]

   -46.6902 -23.0417 -22.9472 -22.9470  -7.1406  -6.6848  -6.5535  -5.4386
    -5.4380  -5.3699  -5.2532  -5.1267   2.9863   5.9524   5.9915   6.4286
     7.0379   7.1059   8.4894   8.8278   9.0411   9.1139  12.7012  13.1205
    13.2449  14.6067

          k = 0.2500 0.2500 0.3500 (  5244 PWs)   bands (ev):

   -46.6899 -23.0410 -22.9613 -22.9465  -7.0298  -6.6705  -6.5757  -5.4365
    -5.4222  -5.3412  -5.2139  -5.1168   2.8947   5.8325   5.8587   6.1600
     6.7544   7.1180   8.4782   8.8711   8.9856   9.1535  12.8541  13.1616
    13.3950  14.7889

          k = 0.2500 0.2500 0.4500 (  5239 PWs)   bands (ev):

   -46.6898 -23.0406 -22.9701 -22.9461  -6.9675  -6.6417  -6.6016  -5.4342
    -5.4114  -5.3200  -5.1842  -5.1208   2.8342   5.7160   5.7594   6.0431
     6.6436   7.1886   8.3338   8.8746   8.9390   9.2026  12.9866  13.1951
    13.5556  15.0345

          k = 0.2500 0.3500 0.3500 (  5243 PWs)   bands (ev):

   -46.6897 -23.0557 -22.9607 -22.9459  -6.9672  -6.6783  -6.5113  -5.4276
    -5.4085  -5.3216  -5.1914  -5.0822   2.9489   5.6036   5.6401   5.9862
     6.4221   6.9567   8.2166   8.9547   8.9867   9.3192  12.9424  13.3814
    13.5355  15.0204

          k = 0.2500 0.3500 0.4500 (  5231 PWs)   bands (ev):

   -46.6895 -23.0552 -22.9694 -22.9455  -6.9318  -6.6435  -6.5293  -5.4231
    -5.3956  -5.3042  -5.1632  -5.0644   2.9387   5.5083   5.5471   5.8278
     6.2858   6.9993   7.9341   8.9537   8.9862   9.4290  13.1752  13.3314
    13.6560  15.3800

          k = 0.2500 0.4500 0.4500 (  5237 PWs)   bands (ev):

   -46.6893 -23.0643 -22.9690 -22.9452  -6.9274  -6.6458  -6.4626  -5.4198
    -5.3816  -5.2927  -5.1513  -5.0301   2.9982   5.3605   5.4300   5.7183
     6.1003   6.9519   7.6063   8.9684   9.0127   9.5766  13.2371  13.5310
    13.7384  15.6046

          k = 0.3500 0.3500 0.3500 (  5250 PWs)   bands (ev):

   -46.6894 -23.0550 -22.9601 -22.9600  -6.8570  -6.6979  -6.5522  -5.4021
    -5.4019  -5.2671  -5.1249  -5.0603   3.0154   5.4032   5.4640   5.7460
     6.4181   6.5107   7.6955   9.2058   9.2440   9.3640  13.1086  13.4730
    13.5105  15.4004

          k = 0.3500 0.3500 0.4500 (  5247 PWs)   bands (ev):

   -46.6892 -23.0546 -22.9688 -22.9597  -6.8090  -6.6824  -6.5821  -5.3989
    -5.3852  -5.2289  -5.0891  -5.0457   3.0426   5.2843   5.4234   5.5934
     6.2590   6.5008   7.2760   9.2699   9.3432   9.4570  13.3079  13.4322
    13.6171  15.7937

          k = 0.3500 0.4500 0.4500 (  5243 PWs)   bands (ev):

   -46.6890 -23.0636 -22.9684 -22.9593  -6.8109  -6.6984  -6.5126  -5.3905
    -5.3768  -5.2139  -5.0588  -5.0086   3.2259   5.1146   5.2284   5.4740
     6.0885   6.4258   6.8509   9.3722   9.3922   9.5757  13.4109  13.5820
    13.6941  16.0604

          k = 0.4500 0.4500 0.4500 (  5268 PWs)   bands (ev):

   -46.6889 -23.0632 -22.9681 -22.9681  -6.7407  -6.7258  -6.5419  -5.3765
    -5.3700  -5.1639  -5.0040  -4.9952   3.3661   5.0696   5.1198   5.3700
     6.0619   6.1745   6.2743   9.5613   9.5642   9.5834  13.5691  13.6655
    13.6681  16.4528

          k =-0.0500 0.1500 0.0500 (  5240 PWs)   bands (ev):

   -46.6914 -23.0288 -22.9254 -22.9253  -7.6355  -6.7444  -6.5950  -5.4326
    -5.4320  -5.4061  -5.3479  -5.1660   3.7614   6.2926   6.3111   6.9559
     8.0551   8.0576   8.5075   8.5729   8.8493   8.8756  11.9150  12.7996
    12.8403  14.0371

          k =-0.0500 0.2500 0.0500 (  5229 PWs)   bands (ev):

   -46.6912 -23.0438 -22.9248 -22.9248  -7.5105  -6.7098  -6.5500  -5.4429
    -5.4384  -5.4053  -5.3352  -5.2043   3.4320   6.3183   6.3370   6.7218
     7.8718   7.8726   8.5288   8.5960   8.8851   9.0649  11.9170  13.1375
    13.1892  14.0454

          k =-0.0500 0.3500 0.0500 (  5230 PWs)   bands (ev):

   -46.6909 -23.0586 -22.9243 -22.9242  -7.3821  -6.6733  -6.5039  -5.4531
    -5.4449  -5.4044  -5.3221  -5.2447   3.1556   6.1112   6.3768   6.5297
     7.7236   7.7254   8.4716   8.7275   8.9230   9.4919  11.9184  13.4647
    13.5245  13.6045

          k =-0.0500 0.4500 0.0500 (  5242 PWs)   bands (ev):

   -46.6907 -23.0678 -22.9239 -22.9239  -7.3009  -6.6496  -6.4746  -5.4593
    -5.4489  -5.4039  -5.3139  -5.2708   3.0040   5.8451   6.3983   6.5336
     7.6404   7.6449   8.4339   8.7846   8.9471   9.9137  11.9177  12.9304
    13.6579  13.7437

          k = 0.1500 0.0500 0.1500 (  5233 PWs)   bands (ev):

   -46.6913 -23.0189 -22.9344 -22.9342  -7.5556  -6.7316  -6.6087  -5.4517
    -5.4329  -5.4126  -5.3291  -5.1427   3.5254   6.2886   6.4982   6.9469
     7.8763   7.9365   8.3201   8.6221   8.7521   9.0928  12.3769  12.5379
    12.6244  14.6685

          k =-0.0500 0.2500 0.1500 (  5245 PWs)   bands (ev):

   -46.6910 -23.0434 -22.9337 -22.9245  -7.4400  -6.7047  -6.5387  -5.4447
    -5.4342  -5.4116  -5.3326  -5.1841   3.2997   6.1819   6.3988   6.8528
     7.5994   7.8340   8.2555   8.6531   8.7195   9.2782  12.1850  13.0782
    13.1972  14.3552

          k = 0.2500 0.0500 0.1500 (  5245 PWs)   bands (ev):

   -46.6910 -23.0183 -22.9487 -22.9337  -7.4261  -6.7051  -6.6051  -5.4668
    -5.4314  -5.4092  -5.3093  -5.1492   3.2353   6.2596   6.5261   6.8790
     7.5975   7.8242   8.3105   8.5939   8.7346   9.2593  12.5586  12.7017
    12.8116  14.6542

          k =-0.0500 0.3500 0.1500 (  5230 PWs)   bands (ev):

   -46.6907 -23.0582 -22.9331 -22.9239  -7.3205  -6.6755  -6.4884  -5.4539
    -5.4295  -5.4111  -5.3259  -5.2105   3.0678   5.9614   6.3921   6.6722
     7.4794   7.7102   8.2567   8.6622   8.7472   9.6034  12.1774  13.4021
    13.5338  13.8355

          k = 0.3500 0.0500 0.1500 (  5230 PWs)   bands (ev):

   -46.6907 -23.0177 -22.9630 -22.9332  -7.2882  -6.6778  -6.6081  -5.4765
    -5.4265  -5.4033  -5.2857  -5.1706   2.9923   6.0070   6.5838   6.9454
     7.3258   7.8396   8.0529   8.6351   8.7719   9.5196  12.5741  13.0213
    13.1310  14.2751

          k =-0.0500 0.4500 0.1500 (  5238 PWs)   bands (ev):

   -46.6905 -23.0673 -22.9327 -22.9236  -7.2470  -6.6563  -6.4548  -5.4597
    -5.4262  -5.4108  -5.3220  -5.2274   2.9363   5.7354   6.3684   6.6509
     7.4189   7.6424   8.2895   8.6500   8.7684   9.8513  12.1682  13.3450
    13.6061  13.7448

          k = 0.4500 0.0500 0.1500 (  5238 PWs)   bands (ev):

   -46.6905 -23.0173 -22.9718 -22.9329  -7.1972  -6.6550  -6.6201  -5.4800
    -5.4231  -5.3985  -5.2536  -5.2054   2.8611   5.7769   6.7022   6.9467
     7.3210   7.5858   8.0146   8.6423   8.7974   9.7551  12.5557  13.2290
    13.3780  13.8226

          k = 0.2500 0.0500 0.2500 (  5229 PWs)   bands (ev):

   -46.6907 -23.0177 -22.9482 -22.9479  -7.3069  -6.6772  -6.6138  -5.4689
    -5.4314  -5.3915  -5.2830  -5.1532   2.9962   6.2618   6.4004   6.8660
     7.4383   7.4983   8.3726   8.4470   8.9136   9.3494  12.6979  12.7798
    12.9867  14.7519

          k =-0.0500 0.3500 0.2500 (  5247 PWs)   bands (ev):

   -46.6904 -23.0575 -22.9474 -22.9234  -7.2288  -6.6668  -6.4613  -5.4519
    -5.4241  -5.4109  -5.3253  -5.1602   2.9321   5.8102   6.4902   6.6242
     7.3071   7.4653   7.9574   8.4388   8.9312   9.5727  12.5591  13.4684
    13.5552  14.2011

          k = 0.3500 0.0500 0.2500 (  5247 PWs)   bands (ev):

   -46.6904 -23.0171 -22.9623 -22.9475  -7.1848  -6.6505  -6.6214  -5.4692
    -5.4233  -5.3676  -5.2582  -5.1708   2.7813   6.0166   6.3809   6.8475
     7.2742   7.5347   8.0701   8.5400   9.0176   9.4113  12.7275  13.0597
    13.2161  14.5451

          k =-0.0500 0.4500 0.2500 (  5250 PWs)   bands (ev):

   -46.6902 -23.0666 -22.9470 -22.9230  -7.1743  -6.6473  -6.4189  -5.4574
    -5.4213  -5.3996  -5.3314  -5.1600   2.8302   5.5956   6.4272   6.6106
     7.2583   7.4279   7.9071   8.4658   8.9363   9.6497  12.5486  13.6502
    13.7520  13.9958

          k = 0.4500 0.0500 0.2500 (  5250 PWs)   bands (ev):

   -46.6902 -23.0167 -22.9712 -22.9471  -7.1081  -6.6355  -6.6244  -5.4684
    -5.4166  -5.3450  -5.2337  -5.2008   2.6595   5.7789   6.4732   6.7286
     7.3291   7.6110   7.7978   8.6185   9.0121   9.4613  12.7173  13.2674
    13.4037  14.3412

          k = 0.3500 0.0500 0.3500 (  5252 PWs)   bands (ev):

   -46.6901 -23.0165 -22.9618 -22.9616  -7.0895  -6.6237  -6.6226  -5.4628
    -5.4096  -5.3281  -5.2312  -5.1827   2.5809   5.9119   6.1802   6.8541
     7.1640   7.4808   8.0412   8.3646   9.1954   9.2896  12.9949  13.1117
    13.3366  14.6527

          k =-0.0500 0.4500 0.3500 (  5246 PWs)   bands (ev):

   -46.6899 -23.0658 -22.9612 -22.9225  -7.1273  -6.6010  -6.3843  -5.4560
    -5.4293  -5.3940  -5.3216  -5.0983   2.7312   5.4864   6.2590   6.6357
     7.0052   7.3450   7.8217   8.2193   8.9864   9.5449  12.8955  13.7260
    13.8162  14.5523

          k = 0.4500 0.0500 0.3500 (  5246 PWs)   bands (ev):

   -46.6899 -23.0161 -22.9705 -22.9613  -7.0382  -6.6180  -6.6033  -5.4593
    -5.3969  -5.2912  -5.2166  -5.2034   2.4624   5.7126   6.1935   6.8011
     7.1161   7.6395   7.8447   8.3529   9.0120   9.4279  13.0432  13.2966
    13.4409  14.6102

          k = 0.4500 0.0500 0.4500 (  5258 PWs)   bands (ev):

   -46.6898 -23.0157 -22.9701 -22.9701  -7.0087  -6.5929  -6.5891  -5.4548
    -5.3766  -5.2484  -5.2195  -5.2068   2.3431   5.5876   6.1220   6.8953
     6.9427   7.7587   7.8648   8.1519   8.7658   9.5875  13.2952  13.3238
    13.4721  14.5524

          k =-0.1500 0.2500 0.1500 (  5249 PWs)   bands (ev):

   -46.6908 -23.0430 -22.9334 -22.9333  -7.3694  -6.7000  -6.5369  -5.4492
    -5.4326  -5.4085  -5.3169  -5.1671   3.2099   6.1917   6.2046   6.8823
     7.4873   7.5796   8.2172   8.6979   8.8506   9.2528  12.3510  13.0327
    13.1906  14.6360

          k =-0.1500 0.3500 0.1500 (  5244 PWs)   bands (ev):

   -46.6905 -23.0578 -22.9328 -22.9327  -7.2566  -6.6801  -6.4843  -5.4572
    -5.4212  -5.4002  -5.3135  -5.1847   3.0233   5.9613   6.1167   6.6997
     7.4349   7.4824   8.1207   8.7256   8.8672   9.5076  12.3126  13.3557
    13.5132  14.0564

          k =-0.1500 0.4500 0.1500 (  5231 PWs)   bands (ev):

   -46.6903 -23.0669 -22.9324 -22.9324  -7.1889  -6.6676  -6.4471  -5.4613
    -5.4171  -5.3888  -5.3147  -5.1967   2.9128   5.7279   6.0659   6.6674
     7.4382   7.4410   8.0607   8.7371   8.8723   9.6572  12.2824  13.5639
    13.7049  13.7616

          k = 0.2500 0.1500 0.2500 (  5231 PWs)   bands (ev):

   -46.6905 -23.0269 -22.9478 -22.9476  -7.2404  -6.6800  -6.5951  -5.4573
    -5.4347  -5.3843  -5.2710  -5.1424   2.9982   6.1502   6.2586   6.5649
     7.2716   7.4680   8.4042   8.6384   8.9480   9.2221  12.7423  12.8944
    13.0562  14.7095

          k =-0.1500 0.3500 0.2500 (  5243 PWs)   bands (ev):

   -46.6902 -23.0571 -22.9470 -22.9322  -7.1607  -6.6778  -6.4747  -5.4518
    -5.4257  -5.3795  -5.2917  -5.1427   2.9453   5.8091   6.0891   6.4991
     6.9938   7.3946   8.2033   8.6642   8.9884   9.3715  12.5799  13.3837
    13.5093  14.3860

          k = 0.3500 0.1500 0.2500 (  5243 PWs)   bands (ev):

   -46.6902 -23.0263 -22.9619 -22.9471  -7.1198  -6.6594  -6.6102  -5.4561
    -5.4242  -5.3576  -5.2404  -5.1505   2.8273   5.9793   6.1938   6.3902
     7.0425   7.5165   8.3277   8.6489   9.0412   9.2136  12.7903  13.0623
    13.2739  14.6281

          k =-0.1500 0.4500 0.2500 (  5235 PWs)   bands (ev):

   -46.6901 -23.0662 -22.9466 -22.9319  -7.1086  -6.6690  -6.4302  -5.4541
    -5.4202  -5.3602  -5.2976  -5.1412   2.8688   5.6103   5.9969   6.4297
     6.9731   7.3719   8.1212   8.6966   8.9931   9.3875  12.5721  13.5888
    13.6863  14.3246

          k = 0.4500 0.1500 0.2500 (  5235 PWs)   bands (ev):

   -46.6901 -23.0259 -22.9707 -22.9467  -7.0450  -6.6420  -6.6232  -5.4545
    -5.4162  -5.3348  -5.2104  -5.1744   2.7261   5.7687   6.1759   6.3501
     6.9575   7.6078   8.1809   8.6951   9.0225   9.2169  12.7919  13.2157
    13.4656  14.6355

          k = 0.3500 0.1500 0.3500 (  5247 PWs)   bands (ev):

   -46.6899 -23.0256 -22.9614 -22.9612  -7.0176  -6.6413  -6.6272  -5.4485
    -5.4080  -5.3123  -5.2082  -5.1529   2.6750   5.8945   6.0547   6.2465
     6.7650   7.4859   8.4185   8.5610   8.9262   9.2945  12.9660  13.1469
    13.3666  14.8778

          k =-0.1500 0.4500 0.3500 (  5234 PWs)   bands (ev):

   -46.6898 -23.0654 -22.9608 -22.9313  -7.0570  -6.6337  -6.4135  -5.4482
    -5.4115  -5.3576  -5.2691  -5.0845   2.8208   5.4777   6.0313   6.2104
     6.4332   7.4296   8.2143   8.5182   8.7853   9.4551  12.9137  13.6082
    13.7335  14.8536

          k = 0.4500 0.1500 0.3500 (  5234 PWs)   bands (ev):

   -46.6898 -23.0252 -22.9701 -22.9609  -6.9616  -6.6376  -6.6217  -5.4446
    -5.3944  -5.2731  -5.1881  -5.1673   2.5790   5.7019   6.0860   6.1969
     6.6238   7.5417   8.3161   8.5910   8.7181   9.4180  13.0531  13.2575
    13.4861  15.0918

          k = 0.4500 0.1500 0.4500 (  5254 PWs)   bands (ev):

   -46.6896 -23.0248 -22.9697 -22.9697  -6.9257  -6.6203  -6.6181  -5.4399
    -5.3750  -5.2242  -5.1764  -5.1746   2.4828   5.5759   6.0804   6.2603
     6.3639   7.5587   8.2506   8.5064   8.5339   9.5833  13.2670  13.3056
    13.5194  15.1327

          k =-0.2500 0.3500 0.2500 (  5244 PWs)   bands (ev):

   -46.6899 -23.0564 -22.9465 -22.9464  -7.0551  -6.6898  -6.4927  -5.4392
    -5.4219  -5.3483  -5.2392  -5.1128   2.9547   5.7530   5.7906   6.2019
     6.7752   7.0296   8.3957   8.8966   9.0712   9.1473  12.7022  13.3955
    13.4478  14.6697

          k =-0.2500 0.4500 0.2500 (  5239 PWs)   bands (ev):

   -46.6898 -23.0655 -22.9461 -22.9460  -7.0115  -6.6930  -6.4432  -5.4390
    -5.4131  -5.3289  -5.2344  -5.1051   2.9253   5.6253   5.6339   6.0756
     6.7171   7.0027   8.2723   8.9224   9.0299   9.1976  12.7399  13.5903
    13.6005  14.7942

          k = 0.3500 0.2500 0.3500 (  5243 PWs)   bands (ev):

   -46.6897 -23.0404 -22.9608 -22.9606  -6.9176  -6.6703  -6.6120  -5.4251
    -5.4051  -5.2898  -5.1673  -5.1060   2.8383   5.7134   5.7629   5.8797
     6.5678   6.9065   8.2192   8.9831   9.0089   9.3076  12.9788  13.2699
    13.4348  15.1040

          k =-0.2500 0.4500 0.3500 (  5231 PWs)   bands (ev):

   -46.6895 -23.0647 -22.9603 -22.9455  -6.9439  -6.6821  -6.4544  -5.4255
    -5.3967  -5.3063  -5.1800  -5.0606   2.9730   5.4318   5.5646   5.8217
     6.2977   6.9183   7.9647   8.9597   9.0110   9.4210  13.0190  13.5546
    13.6569  15.2514

          k = 0.4500 0.2500 0.3500 (  5231 PWs)   bands (ev):

   -46.6895 -23.0399 -22.9695 -22.9603  -6.8550  -6.6578  -6.6384  -5.4209
    -5.3905  -5.2507  -5.1387  -5.1067   2.7911   5.6318   5.6908   5.7723
     6.4040   6.9259   7.9137   9.0138   9.0276   9.4185  13.1442  13.2876
    13.5473  15.4516

          k = 0.4500 0.2500 0.4500 (  5237 PWs)   bands (ev):

   -46.6893 -23.0395 -22.9691 -22.9691  -6.7937  -6.6618  -6.6565  -5.4157
    -5.3728  -5.2015  -5.1113  -5.1041   2.7466   5.5392   5.7026   5.7112
     6.1837   6.8806   7.5338   9.0548   9.0601   9.5767  13.3136  13.3643
    13.5711  15.7726

          k =-0.3500 0.4500 0.3500 (  5247 PWs)   bands (ev):

   -46.6892 -23.0640 -22.9597 -22.9596  -6.8415  -6.7143  -6.4908  -5.4002
    -5.3877  -5.2512  -5.0990  -5.0326   3.1303   5.2741   5.2933   5.5796
     6.2202   6.4954   7.3396   9.2814   9.2988   9.4556  13.2256  13.5838
    13.6378  15.6824

          k = 0.4500 0.3500 0.4500 (  5243 PWs)   bands (ev):

   -46.6890 -23.0542 -22.9685 -22.9684  -6.7267  -6.7022  -6.6215  -5.3915
    -5.3710  -5.1795  -5.0446  -5.0362   3.0857   5.2831   5.3256   5.4754
     6.1744   6.3258   6.7806   9.4068   9.4173   9.5705  13.4611  13.5225
    13.6114  16.1664

     the Fermi energy is     9.8459 ev

!    total energy              =    -364.96272042 Ry
     Harris-Foulkes estimate   =    -364.96272042 Ry
     estimated scf accuracy    <          4.0E-11 Ry

     The total energy is the sum of the following terms:

     one-electron contribution =     -90.75293417 Ry
     hartree contribution      =      73.96003350 Ry
     xc contribution           =     -85.79511243 Ry
     ewald contribution        =    -262.38096108 Ry
     smearing contrib. (-TS)   =       0.00625377 Ry

     convergence has been achieved in   7 iterations

     Forces acting on atoms (cartesian axes, Ry/au):

     atom    1 type  1   force =     0.00000000    0.00011979    0.00000000
     atom    2 type  2   force =     0.00000000   -0.00035267    0.00000000
     atom    3 type  3   force =     0.00000000    0.00052085    0.00000000
     atom    4 type  3   force =     0.00000000   -0.00080882    0.00000000
     atom    5 type  3   force =     0.00000000    0.00052085    0.00000000

     Total force =     0.001149     Total SCF correction =     0.000027


     Computing stress (Cartesian axis) and pressure

          total   stress  (Ry/bohr**3)                   (kbar)     P=   -8.77
  -0.00019482   0.00000000   0.00000000        -28.66      0.00      0.00
   0.00000000   0.00021072   0.00000000          0.00     31.00      0.00
   0.00000000   0.00000000  -0.00019482          0.00      0.00    -28.66


     bfgs converged in  21 scf cycles and  20 bfgs steps
     (criteria: energy <  1.0E-04 Ry, force <  1.0E-03 Ry/Bohr)

     End of BFGS Geometry Optimization

     Final energy   =    -364.9627204175 Ry
Begin final coordinates

ATOMIC_POSITIONS (crystal)
Pb       0.000000000   0.000000000   0.000000000    0   0   0
Ti       0.500000000   0.457669532   0.500000000
O        0.500000000   0.393266931   0.000000000
O        0.500000000  -0.098529044   0.500000000
O        0.000000000   0.393266931   0.500000000
End final coordinates



     Writing output data file PbTiO3.save/

     init_run     :     11.93s CPU     15.70s WALL (       1 calls)
     electrons    :   5423.43s CPU   7615.35s WALL (      21 calls)
     update_pot   :      7.67s CPU      8.11s WALL (      20 calls)
     forces       :    112.59s CPU    127.73s WALL (      21 calls)
     stress       :    291.48s CPU    316.72s WALL (      21 calls)

     Called by init_run:
     wfcinit      :      9.00s CPU     12.40s WALL (       1 calls)
     potinit      :      0.27s CPU      0.30s WALL (       1 calls)
     hinit0       :      1.98s CPU      2.01s WALL (       1 calls)

     Called by electrons:
     c_bands      :   4679.61s CPU   6440.18s WALL (     189 calls)
     sum_band     :    583.37s CPU    959.04s WALL (     189 calls)
     v_of_rho     :     41.86s CPU     45.50s WALL (     207 calls)
     newd         :    129.62s CPU    186.00s WALL (     207 calls)
     mix_rho      :      3.76s CPU      4.40s WALL (     189 calls)

     Called by c_bands:
     init_us_2    :     78.71s CPU    100.89s WALL (   31575 calls)
     cegterg      :   4446.33s CPU   6189.66s WALL (   14175 calls)

     Called by sum_band:
     sum_band:bec :      0.86s CPU      1.21s WALL (   14175 calls)
     addusdens    :    162.78s CPU    214.75s WALL (     189 calls)

     Called by *egterg:
     h_psi        :   2339.43s CPU   3874.55s WALL (   63656 calls)
     s_psi        :    484.69s CPU    533.28s WALL (   63656 calls)
     g_psi        :     43.58s CPU     56.94s WALL (   49406 calls)
     cdiaghg      :     81.71s CPU    110.58s WALL (   61856 calls)

     Called by h_psi:
     h_psi:pot    :   2329.43s CPU   3858.27s WALL (   63656 calls)
     h_psi:calbec :    487.25s CPU    542.98s WALL (   63656 calls)
     vloc_psi     :   1344.49s CPU   2777.45s WALL (   63656 calls)
     add_vuspsi   :    493.43s CPU    532.53s WALL (   63656 calls)

     General routines
     calbec       :    749.26s CPU    827.54s WALL (   85706 calls)
     fft          :     19.13s CPU     21.40s WALL (    3197 calls)
     ffts         :      0.43s CPU      0.71s WALL (     396 calls)
     fftw         :   1379.93s CPU   2887.88s WALL ( 2466934 calls)
     interpolate  :      1.67s CPU      2.15s WALL (     207 calls)

     Parallel routines

     PWSCF        :      1h37m CPU      2h15m WALL


   This run was terminated on:   7:42:29  15May2020            

=------------------------------------------------------------------------------=
   JOB DONE.
=------------------------------------------------------------------------------=
