
     Program PWSCF v.6.4.1 starts on 14May2020 at 10:55:59 

     This program is part of the open-source Quantum ESPRESSO suite
     for quantum simulation of materials; please cite
         "P. Giannozzi et al., J. Phys.:Condens. Matter 21 395502 (2009);
         "P. Giannozzi et al., J. Phys.:Condens. Matter 29 465901 (2017);
          URL http://www.quantum-espresso.org", 
     in publications or presentations arising from this work. More details at
     http://www.quantum-espresso.org/quote

     Parallel version (MPI), running on     1 processors

     MPI processes distributed on     1 nodes
     Reading input from PTO_7.35_10_0.548.pw.in
Warning: card  &CELL ignored
Warning: card   CELL_DYNAMICS = 'BFGS', ignored
Warning: card  / ignored

     Current dimensions of program PWSCF are:
     Max number of different atomic species (ntypx) = 10
     Max number of k-points (npk) =  40000
     Max angular momentum in pseudopotentials (lmaxx) =  3
     Message from routine read_upf::
     Pseudo file Pb.pbe-dn-rrkjus_psl.0.2.2.UPF has been fixed on the fly.
To avoid this message in the future, permanently fix 
 your pseudo files following these instructions: 
https://gitlab.com/QEF/q-e/blob/master/upftools/how_to_fix_upf.md
     Message from routine read_upf::
     Pseudo file O.pbe-n-rrkjus_psl.0.1.UPF has been fixed on the fly.
To avoid this message in the future, permanently fix 
 your pseudo files following these instructions: 
https://gitlab.com/QEF/q-e/blob/master/upftools/how_to_fix_upf.md
               file Pb.pbe-dn-rrkjus_psl.0.2.2.UPF: wavefunction(s)  6S renormalized

     Subspace diagonalization in iterative solution of the eigenvalue problem:
     a serial algorithm will be used


     G-vector sticks info
     --------------------
     sticks:   dense  smooth     PW     G-vecs:    dense   smooth      PW
     Sum        3433    1369    401               151635    38401    6031



     bravais-lattice index     =            1
     lattice parameter (alat)  =       7.3500  a.u.
     unit-cell volume          =     397.0654 (a.u.)^3
     number of atoms/cell      =            5
     number of atomic types    =            3
     number of electrons       =        44.00
     number of Kohn-Sham states=           26
     kinetic-energy cutoff     =      80.0000  Ry
     charge density cutoff     =     800.0000  Ry
     convergence threshold     =      1.0E-08
     mixing beta               =       0.7000
     number of iterations used =            8  plain     mixing
     Exchange-correlation      = PBE ( 1  4  3  4 0 0)
     nstep                     =           50


     celldm(1)=   7.350000  celldm(2)=   0.000000  celldm(3)=   0.000000
     celldm(4)=   0.000000  celldm(5)=   0.000000  celldm(6)=   0.000000

     crystal axes: (cart. coord. in units of alat)
               a(1) = (   1.000000   0.000000   0.000000 )  
               a(2) = (   0.000000   1.000000   0.000000 )  
               a(3) = (   0.000000   0.000000   1.000000 )  

     reciprocal axes: (cart. coord. in units 2 pi/alat)
               b(1) = (  1.000000  0.000000  0.000000 )  
               b(2) = (  0.000000  1.000000  0.000000 )  
               b(3) = (  0.000000  0.000000  1.000000 )  


     PseudoPot. # 1 for Pb read from file:
     ./Pb.pbe-dn-rrkjus_psl.0.2.2.UPF
     MD5 check sum: 7afc420059c37d6888fc09c0f121e83f
     Pseudo is Ultrasoft + core correction, Zval = 14.0
     Generated using "atomic" code by A. Dal Corso v.5.0.2 svn rev. 9415
     Using radial grid of 1281 points,  6 beta functions with: 
                l(1) =   0
                l(2) =   0
                l(3) =   1
                l(4) =   1
                l(5) =   2
                l(6) =   2
     Q(r) pseudized with 0 coefficients 


     PseudoPot. # 2 for Ti read from file:
     ./Ti.pbe-sp-van_ak.UPF
     MD5 check sum: 8e4df49b7f0d34bbd5052bf3f5ea0213
     Pseudo is Ultrasoft, Zval = 12.0
     Generated by new atomic code, or converted to UPF format
     Using radial grid of  851 points,  6 beta functions with: 
                l(1) =   0
                l(2) =   0
                l(3) =   1
                l(4) =   1
                l(5) =   2
                l(6) =   2
     Q(r) pseudized with  8 coefficients,  rinner =    1.000   1.000   1.000
                                                       1.000   1.000

     PseudoPot. # 3 for O  read from file:
     ./O.pbe-n-rrkjus_psl.0.1.UPF
     MD5 check sum: e057bbcf3229fb5d8c36c0c92f9568b4
     Pseudo is Ultrasoft + core correction, Zval =  6.0
     Generated using "atomic" code by A. Dal Corso v.5.0.2 svn rev. 9415
     Using radial grid of 1095 points,  4 beta functions with: 
                l(1) =   0
                l(2) =   0
                l(3) =   1
                l(4) =   1
     Q(r) pseudized with 0 coefficients 


     atomic species   valence    mass     pseudopotential
        Pb            14.00   207.20000     Pb( 1.00)
        Ti            12.00    47.87000     Ti( 1.00)
        O              6.00    16.00000     O ( 1.00)

      8 Sym. Ops. (no inversion) found



   Cartesian axes

     site n.     atom                  positions (alat units)
         1           Pb  tau(   1) = (   0.0000000   0.0000000   0.0000000  )
         2           Ti  tau(   2) = (   0.5000000   0.5480000   0.5000000  )
         3           O   tau(   3) = (   0.5000000   0.5000000   0.0000000  )
         4           O   tau(   4) = (   0.5000000   0.0000000   0.5000000  )
         5           O   tau(   5) = (   0.0000000   0.5000000   0.5000000  )

     number of k points=    75  Marzari-Vanderbilt smearing, width (Ry)=  0.0250
                       cart. coord. in units 2pi/alat
        k(    1) = (   0.0500000   0.0500000   0.0500000), wk =   0.0160000
        k(    2) = (   0.0500000   0.0500000   0.1500000), wk =   0.0320000
        k(    3) = (   0.0500000   0.0500000   0.2500000), wk =   0.0320000
        k(    4) = (   0.0500000   0.0500000   0.3500000), wk =   0.0320000
        k(    5) = (   0.0500000   0.0500000   0.4500000), wk =   0.0320000
        k(    6) = (   0.0500000   0.1500000   0.1500000), wk =   0.0320000
        k(    7) = (   0.0500000   0.1500000   0.2500000), wk =   0.0320000
        k(    8) = (   0.0500000   0.1500000   0.3500000), wk =   0.0320000
        k(    9) = (   0.0500000   0.1500000   0.4500000), wk =   0.0320000
        k(   10) = (   0.0500000   0.2500000   0.2500000), wk =   0.0320000
        k(   11) = (   0.0500000   0.2500000   0.3500000), wk =   0.0320000
        k(   12) = (   0.0500000   0.2500000   0.4500000), wk =   0.0320000
        k(   13) = (   0.0500000   0.3500000   0.3500000), wk =   0.0320000
        k(   14) = (   0.0500000   0.3500000   0.4500000), wk =   0.0320000
        k(   15) = (   0.0500000   0.4500000   0.4500000), wk =   0.0320000
        k(   16) = (   0.1500000   0.1500000   0.1500000), wk =   0.0160000
        k(   17) = (   0.1500000   0.1500000   0.2500000), wk =   0.0320000
        k(   18) = (   0.1500000   0.1500000   0.3500000), wk =   0.0320000
        k(   19) = (   0.1500000   0.1500000   0.4500000), wk =   0.0320000
        k(   20) = (   0.1500000   0.2500000   0.2500000), wk =   0.0320000
        k(   21) = (   0.1500000   0.2500000   0.3500000), wk =   0.0320000
        k(   22) = (   0.1500000   0.2500000   0.4500000), wk =   0.0320000
        k(   23) = (   0.1500000   0.3500000   0.3500000), wk =   0.0320000
        k(   24) = (   0.1500000   0.3500000   0.4500000), wk =   0.0320000
        k(   25) = (   0.1500000   0.4500000   0.4500000), wk =   0.0320000
        k(   26) = (   0.2500000   0.2500000   0.2500000), wk =   0.0160000
        k(   27) = (   0.2500000   0.2500000   0.3500000), wk =   0.0320000
        k(   28) = (   0.2500000   0.2500000   0.4500000), wk =   0.0320000
        k(   29) = (   0.2500000   0.3500000   0.3500000), wk =   0.0320000
        k(   30) = (   0.2500000   0.3500000   0.4500000), wk =   0.0320000
        k(   31) = (   0.2500000   0.4500000   0.4500000), wk =   0.0320000
        k(   32) = (   0.3500000   0.3500000   0.3500000), wk =   0.0160000
        k(   33) = (   0.3500000   0.3500000   0.4500000), wk =   0.0320000
        k(   34) = (   0.3500000   0.4500000   0.4500000), wk =   0.0320000
        k(   35) = (   0.4500000   0.4500000   0.4500000), wk =   0.0160000
        k(   36) = (  -0.0500000   0.1500000   0.0500000), wk =   0.0160000
        k(   37) = (  -0.0500000   0.2500000   0.0500000), wk =   0.0160000
        k(   38) = (  -0.0500000   0.3500000   0.0500000), wk =   0.0160000
        k(   39) = (  -0.0500000   0.4500000   0.0500000), wk =   0.0160000
        k(   40) = (   0.1500000   0.0500000   0.1500000), wk =   0.0160000
        k(   41) = (  -0.0500000   0.2500000   0.1500000), wk =   0.0320000
        k(   42) = (   0.2500000   0.0500000   0.1500000), wk =   0.0320000
        k(   43) = (  -0.0500000   0.3500000   0.1500000), wk =   0.0320000
        k(   44) = (   0.3500000   0.0500000   0.1500000), wk =   0.0320000
        k(   45) = (  -0.0500000   0.4500000   0.1500000), wk =   0.0320000
        k(   46) = (   0.4500000   0.0500000   0.1500000), wk =   0.0320000
        k(   47) = (   0.2500000   0.0500000   0.2500000), wk =   0.0160000
        k(   48) = (  -0.0500000   0.3500000   0.2500000), wk =   0.0320000
        k(   49) = (   0.3500000   0.0500000   0.2500000), wk =   0.0320000
        k(   50) = (  -0.0500000   0.4500000   0.2500000), wk =   0.0320000
        k(   51) = (   0.4500000   0.0500000   0.2500000), wk =   0.0320000
        k(   52) = (   0.3500000   0.0500000   0.3500000), wk =   0.0160000
        k(   53) = (  -0.0500000   0.4500000   0.3500000), wk =   0.0320000
        k(   54) = (   0.4500000   0.0500000   0.3500000), wk =   0.0320000
        k(   55) = (   0.4500000   0.0500000   0.4500000), wk =   0.0160000
        k(   56) = (  -0.1500000   0.2500000   0.1500000), wk =   0.0160000
        k(   57) = (  -0.1500000   0.3500000   0.1500000), wk =   0.0160000
        k(   58) = (  -0.1500000   0.4500000   0.1500000), wk =   0.0160000
        k(   59) = (   0.2500000   0.1500000   0.2500000), wk =   0.0160000
        k(   60) = (  -0.1500000   0.3500000   0.2500000), wk =   0.0320000
        k(   61) = (   0.3500000   0.1500000   0.2500000), wk =   0.0320000
        k(   62) = (  -0.1500000   0.4500000   0.2500000), wk =   0.0320000
        k(   63) = (   0.4500000   0.1500000   0.2500000), wk =   0.0320000
        k(   64) = (   0.3500000   0.1500000   0.3500000), wk =   0.0160000
        k(   65) = (  -0.1500000   0.4500000   0.3500000), wk =   0.0320000
        k(   66) = (   0.4500000   0.1500000   0.3500000), wk =   0.0320000
        k(   67) = (   0.4500000   0.1500000   0.4500000), wk =   0.0160000
        k(   68) = (  -0.2500000   0.3500000   0.2500000), wk =   0.0160000
        k(   69) = (  -0.2500000   0.4500000   0.2500000), wk =   0.0160000
        k(   70) = (   0.3500000   0.2500000   0.3500000), wk =   0.0160000
        k(   71) = (  -0.2500000   0.4500000   0.3500000), wk =   0.0320000
        k(   72) = (   0.4500000   0.2500000   0.3500000), wk =   0.0320000
        k(   73) = (   0.4500000   0.2500000   0.4500000), wk =   0.0160000
        k(   74) = (  -0.3500000   0.4500000   0.3500000), wk =   0.0160000
        k(   75) = (   0.4500000   0.3500000   0.4500000), wk =   0.0160000

     Dense  grid:   151635 G-vectors     FFT dimensions: (  72,  72,  72)

     Smooth grid:    38401 G-vectors     FFT dimensions: (  45,  45,  45)

     Estimated max dynamical RAM per process >     719.16 MB

     Check: negative core charge=   -0.000005

     Initial potential from superposition of free atoms

     starting charge   42.99760, renormalised to   44.00000
     Starting wfcs are   31 randomized atomic wfcs

     total cpu time spent up to now is       15.9 secs

     Self-consistent Calculation

     iteration #  1     ecut=    80.00 Ry     beta= 0.70
     Davidson diagonalization with overlap
     ethr =  1.00E-02,  avg # of iterations =  2.0

     total cpu time spent up to now is       45.7 secs

     total energy              =    -364.41420560 Ry
     Harris-Foulkes estimate   =    -365.27816852 Ry
     estimated scf accuracy    <       1.08705668 Ry

     iteration #  2     ecut=    80.00 Ry     beta= 0.70
     Davidson diagonalization with overlap
     ethr =  2.47E-03,  avg # of iterations =  4.1

     total cpu time spent up to now is       89.1 secs

     total energy              =    -363.77932835 Ry
     Harris-Foulkes estimate   =    -365.58627782 Ry
     estimated scf accuracy    <       5.65823967 Ry

     iteration #  3     ecut=    80.00 Ry     beta= 0.70
     Davidson diagonalization with overlap
     ethr =  2.47E-03,  avg # of iterations =  4.6

     total cpu time spent up to now is      131.0 secs

     total energy              =    -364.91623662 Ry
     Harris-Foulkes estimate   =    -365.06259131 Ry
     estimated scf accuracy    <       0.39377585 Ry

     iteration #  4     ecut=    80.00 Ry     beta= 0.70
     Davidson diagonalization with overlap
     ethr =  8.95E-04,  avg # of iterations =  3.5

     total cpu time spent up to now is      160.8 secs

     total energy              =    -364.91428264 Ry
     Harris-Foulkes estimate   =    -364.94767504 Ry
     estimated scf accuracy    <       0.10054672 Ry

     iteration #  5     ecut=    80.00 Ry     beta= 0.70
     Davidson diagonalization with overlap
     ethr =  2.29E-04,  avg # of iterations =  4.2

     total cpu time spent up to now is      198.4 secs

     total energy              =    -364.94215558 Ry
     Harris-Foulkes estimate   =    -364.94306816 Ry
     estimated scf accuracy    <       0.00397770 Ry

     iteration #  6     ecut=    80.00 Ry     beta= 0.70
     Davidson diagonalization with overlap
     ethr =  9.04E-06,  avg # of iterations =  3.9

     total cpu time spent up to now is      234.5 secs

     total energy              =    -364.94239847 Ry
     Harris-Foulkes estimate   =    -364.94314835 Ry
     estimated scf accuracy    <       0.00307716 Ry

     iteration #  7     ecut=    80.00 Ry     beta= 0.70
     Davidson diagonalization with overlap
     ethr =  6.99E-06,  avg # of iterations =  2.2

     total cpu time spent up to now is      262.1 secs

     total energy              =    -364.94242920 Ry
     Harris-Foulkes estimate   =    -364.94264350 Ry
     estimated scf accuracy    <       0.00048049 Ry

     iteration #  8     ecut=    80.00 Ry     beta= 0.70
     Davidson diagonalization with overlap
     ethr =  1.09E-06,  avg # of iterations =  3.7

     total cpu time spent up to now is      297.9 secs

     total energy              =    -364.94259415 Ry
     Harris-Foulkes estimate   =    -364.94262802 Ry
     estimated scf accuracy    <       0.00011862 Ry

     iteration #  9     ecut=    80.00 Ry     beta= 0.70
     Davidson diagonalization with overlap
     ethr =  2.70E-07,  avg # of iterations =  2.3

     total cpu time spent up to now is      325.3 secs

     total energy              =    -364.94260254 Ry
     Harris-Foulkes estimate   =    -364.94260555 Ry
     estimated scf accuracy    <       0.00000937 Ry

     iteration # 10     ecut=    80.00 Ry     beta= 0.70
     Davidson diagonalization with overlap
     ethr =  2.13E-08,  avg # of iterations =  3.7

     total cpu time spent up to now is      362.2 secs

     total energy              =    -364.94260685 Ry
     Harris-Foulkes estimate   =    -364.94260696 Ry
     estimated scf accuracy    <       0.00000073 Ry

     iteration # 11     ecut=    80.00 Ry     beta= 0.70
     Davidson diagonalization with overlap
     ethr =  1.65E-09,  avg # of iterations =  2.5

     total cpu time spent up to now is      392.0 secs

     total energy              =    -364.94260683 Ry
     Harris-Foulkes estimate   =    -364.94260693 Ry
     estimated scf accuracy    <       0.00000029 Ry

     iteration # 12     ecut=    80.00 Ry     beta= 0.70
     Davidson diagonalization with overlap
     ethr =  6.67E-10,  avg # of iterations =  3.0

     total cpu time spent up to now is      422.6 secs

     End of self-consistent calculation

          k = 0.0500 0.0500 0.0500 (  4830 PWs)   bands (ev):

   -44.9393 -21.3567 -21.2204 -21.2203  -6.6128  -5.5175  -5.3973  -4.0682
    -4.0475  -4.0471  -3.9076  -3.8959   5.4580   7.5237   7.5801   7.7692
     9.5110   9.5346   9.9403  10.1257  10.3990  10.4011  13.5404  14.0615
    14.0702  16.0252

          k = 0.0500 0.0500 0.1500 (  4808 PWs)   bands (ev):

   -44.9390 -21.3561 -21.2345 -21.2198  -6.5212  -5.4790  -5.3605  -4.0781
    -4.0576  -4.0466  -3.9423  -3.8915   5.0860   7.5849   7.6678   8.0002
     9.3091   9.4711   9.9154   9.9973  10.2402  10.3937  13.8873  14.0704
    14.1655  16.2370

          k = 0.0500 0.0500 0.2500 (  4801 PWs)   bands (ev):

   -44.9385 -21.3553 -21.2573 -21.2190  -6.3689  -5.4117  -5.3010  -4.0949
    -4.0744  -4.0456  -4.0045  -3.8821   4.6500   7.6382   7.7675   7.9744
     9.2102   9.2779   9.8406   9.9100  10.1677  10.4788  14.0704  14.3928
    14.5154  16.2284

          k = 0.0500 0.0500 0.3500 (  4799 PWs)   bands (ev):

   -44.9381 -21.3544 -21.2800 -21.2181  -6.2110  -5.3349  -5.2438  -4.1197
    -4.0937  -4.0614  -4.0444  -3.8746   4.3212   7.2786   7.9382   8.1014
     8.9389   9.0632   9.7442   9.8431  10.2657  10.9361  14.0703  14.8519
    14.9503  15.4048

          k = 0.0500 0.0500 0.4500 (  4812 PWs)   bands (ev):

   -44.9378 -21.3538 -21.2939 -21.2176  -6.1102  -5.2782  -5.2130  -4.1520
    -4.1068  -4.0821  -4.0438  -3.8713   4.1545   6.9693   8.0985   8.3375
     8.6647   8.8048   9.6989   9.8382  10.3158  11.4479  14.0531  14.6373
    15.1242  15.2498

          k = 0.0500 0.1500 0.1500 (  4809 PWs)   bands (ev):

   -44.9387 -21.3706 -21.2339 -21.2193  -6.4156  -5.4498  -5.3301  -4.0786
    -4.0716  -4.0557  -3.9324  -3.9117   4.8162   7.5405   7.6388   8.2090
     9.0847   9.3025   9.7753  10.0139  10.2036  10.4878  13.8870  14.3406
    14.4137  16.3533

          k = 0.0500 0.1500 0.2500 (  4797 PWs)   bands (ev):

   -44.9382 -21.3696 -21.2567 -21.2184  -6.2679  -5.3923  -5.2760  -4.1002
    -4.0839  -4.0550  -3.9647  -3.8997   4.4697   7.5120   7.7609   8.0996
     8.9545   9.1421   9.6386   9.9460  10.0627  10.6846  14.3208  14.4092
    14.7023  16.3553

          k = 0.0500 0.1500 0.3500 (  4805 PWs)   bands (ev):

   -44.9378 -21.3687 -21.2792 -21.2176  -6.1174  -5.3353  -5.2145  -4.1241
    -4.0960  -4.0544  -3.9941  -3.8920   4.1866   7.2513   7.8701   8.0939
     8.7113   8.9775   9.6115   9.9111  10.0435  10.9953  14.3312  14.8446
    15.0789  15.5819

          k = 0.0500 0.1500 0.4500 (  4812 PWs)   bands (ev):

   -44.9375 -21.3680 -21.2931 -21.2170  -6.0231  -5.3001  -5.1720  -4.1419
    -4.1064  -4.0540  -4.0041  -3.8918   4.0370   6.9728   7.9520   8.2746
     8.5477   8.7121   9.6403   9.9670  10.0142  11.2464  14.3086  15.0506
    15.1174  15.3460

          k = 0.0500 0.2500 0.2500 (  4800 PWs)   bands (ev):

   -44.9378 -21.3927 -21.2556 -21.2175  -6.1044  -5.3613  -5.2263  -4.1065
    -4.0882  -4.0659  -3.9323  -3.9164   4.1998   7.3594   7.7888   7.9811
     8.7415   8.8596   9.3735   9.9328  10.2581  10.8684  14.3706  14.7657
    15.0001  16.2411

          k = 0.0500 0.2500 0.3500 (  4807 PWs)   bands (ev):

   -44.9373 -21.3917 -21.2781 -21.2166  -5.9775  -5.3237  -5.1530  -4.1179
    -4.0950  -4.0673  -3.9426  -3.8914   3.9762   7.1970   7.7066   7.9742
     8.4838   8.8572   9.2716   9.7467  10.3831  10.9076  14.7255  14.8445
    15.2775  15.9040

          k = 0.0500 0.2500 0.4500 (  4798 PWs)   bands (ev):

   -44.9370 -21.3910 -21.2919 -21.2161  -5.9052  -5.2978  -5.0984  -4.1255
    -4.1049  -4.0683  -3.9331  -3.8875   3.8513   6.9704   7.7212   7.9536
     8.3911   8.8295   9.2499   9.7166  10.4222  10.8878  14.7325  15.0859
    15.4891  15.6964

          k = 0.0500 0.3500 0.3500 (  4803 PWs)   bands (ev):

   -44.9368 -21.4145 -21.2769 -21.2157  -5.8672  -5.2688  -5.0856  -4.1165
    -4.0977  -4.0731  -3.9636  -3.8269   3.7760   6.9998   7.4311   7.9485
     8.3749   8.7216   9.1451   9.7001  10.4879  10.8526  14.7928  15.1674
    15.4809  16.2522

          k = 0.0500 0.3500 0.4500 (  4794 PWs)   bands (ev):

   -44.9365 -21.4138 -21.2907 -21.2151  -5.8342  -5.2292  -5.0174  -4.1179
    -4.1034  -4.0759  -3.9715  -3.7876   3.6720   6.8993   7.2576   8.0175
     8.1787   8.8932   9.0431   9.5814  10.3620  10.8763  15.0496  15.1619
    15.6601  16.3015

          k = 0.0500 0.4500 0.4500 (  4782 PWs)   bands (ev):

   -44.9362 -21.4278 -21.2899 -21.2146  -5.8162  -5.1510  -4.9631  -4.1207
    -4.1029  -4.0788  -3.9947  -3.7289   3.5645   6.6940   7.1333   7.9852
     8.1526   8.8018   9.1082   9.5257  10.0578  11.0628  15.0285  15.4224
    15.7766  16.7048

          k = 0.1500 0.1500 0.1500 (  4818 PWs)   bands (ev):

   -44.9384 -21.3700 -21.2336 -21.2332  -6.3291  -5.4205  -5.3008  -4.0895
    -4.0782  -4.0565  -3.9250  -3.9141   4.6417   7.4849   7.5598   8.3328
     8.9380   9.1049   9.7300  10.0820  10.2734  10.3813  14.1337  14.3931
    14.4296  16.8679

          k = 0.1500 0.1500 0.2500 (  4805 PWs)   bands (ev):

   -44.9379 -21.3691 -21.2560 -21.2325  -6.1896  -5.3724  -5.2488  -4.1077
    -4.0801  -4.0534  -3.9441  -3.8994   4.3774   7.4403   7.5281   8.1293
     8.7247   8.9480   9.7722  10.0397  10.1854  10.5902  14.3518  14.5435
    14.6957  16.3338

          k = 0.1500 0.1500 0.3500 (  4805 PWs)   bands (ev):

   -44.9375 -21.3681 -21.2786 -21.2316  -6.0523  -5.3232  -5.1888  -4.1231
    -4.0713  -4.0486  -3.9713  -3.8918   4.1400   7.2419   7.5052   7.9310
     8.5539   9.0003   9.5232  10.0805  10.1961  10.8581  14.2882  14.8945
    15.0677  15.7938

          k = 0.1500 0.1500 0.4500 (  4807 PWs)   bands (ev):

   -44.9372 -21.3675 -21.2924 -21.2310  -5.9698  -5.2926  -5.1458  -4.1290
    -4.0638  -4.0433  -3.9904  -3.8931   4.0080   6.9797   7.4782   7.9616
     8.4874   9.1063   9.2620  10.1514  10.1829  11.0034  14.2141  15.1293
    15.3286  15.5354

          k = 0.1500 0.2500 0.2500 (  4811 PWs)   bands (ev):

   -44.9375 -21.3921 -21.2550 -21.2315  -6.0221  -5.3474  -5.2262  -4.1102
    -4.0913  -4.0401  -3.9123  -3.8964   4.1910   7.2603   7.3792   7.9461
     8.4285   8.7935   9.6765  10.1018  10.3063  10.7016  14.4062  14.7515
    14.9459  16.1297

          k = 0.1500 0.2500 0.3500 (  4800 PWs)   bands (ev):

   -44.9370 -21.3911 -21.2774 -21.2306  -5.8995  -5.3285  -5.1599  -4.1137
    -4.0786  -4.0304  -3.9154  -3.8741   4.0225   7.1453   7.3164   7.6470
     8.1266   8.8543   9.7510   9.8883  10.4047  10.6951  14.5431  14.8729
    15.2102  16.0902

          k = 0.1500 0.2500 0.4500 (  4793 PWs)   bands (ev):

   -44.9367 -21.3904 -21.2912 -21.2300  -5.8309  -5.3195  -5.1056  -4.1120
    -4.0666  -4.0297  -3.9065  -3.8732   3.9210   6.9662   7.2662   7.5250
     8.0542   8.9559   9.5550   9.9732  10.4057  10.6265  14.5587  15.0638
    15.4289  16.1180

          k = 0.1500 0.3500 0.3500 (  4792 PWs)   bands (ev):

   -44.9365 -21.4139 -21.2763 -21.2296  -5.7742  -5.2955  -5.1294  -4.1094
    -4.0711  -4.0077  -3.9218  -3.8104   3.8873   6.9294   7.2346   7.4012
     7.7893   8.8320   9.6108   9.9442  10.3071  10.7524  14.6869  15.0673
    15.3873  16.4210

          k = 0.1500 0.3500 0.4500 (  4792 PWs)   bands (ev):

   -44.9362 -21.4132 -21.2901 -21.2291  -5.7398  -5.2810  -5.0654  -4.1042
    -4.0482  -4.0141  -3.9253  -3.7713   3.8138   6.8672   7.1520   7.2841
     7.5830   8.9079   9.6380   9.8072  10.0590  10.8537  14.9465  15.0646
    15.5522  16.6490

          k = 0.1500 0.4500 0.4500 (  4775 PWs)   bands (ev):

   -44.9359 -21.4272 -21.2893 -21.2285  -5.7172  -5.2150  -5.0416  -4.1008
    -4.0268  -3.9922  -3.9562  -3.7110   3.7394   6.6559   7.0812   7.2809
     7.4064   8.9131   9.4300   9.7159   9.9427  11.0359  15.0150  15.2832
    15.6560  16.9984

          k = 0.2500 0.2500 0.2500 (  4794 PWs)   bands (ev):

   -44.9370 -21.3911 -21.2543 -21.2538  -5.8990  -5.3236  -5.2143  -4.0965
    -4.0921  -4.0071  -3.8883  -3.8667   4.1508   7.0246   7.1359   7.7865
     8.2217   8.3464   9.9136  10.3382  10.4253  10.4763  14.3933  14.9132
    14.9198  16.1662

          k = 0.2500 0.2500 0.3500 (  4799 PWs)   bands (ev):

   -44.9365 -21.3901 -21.2764 -21.2531  -5.7957  -5.3091  -5.1691  -4.0896
    -4.0718  -3.9680  -3.8707  -3.8465   4.0805   6.8780   6.9753   7.4206
     7.9477   8.3133   9.8575  10.2659  10.3854  10.6377  14.4723  14.9680
    15.1982  16.3853

          k = 0.2500 0.2500 0.4500 (  4793 PWs)   bands (ev):

   -44.9362 -21.3895 -21.2902 -21.2525  -5.7451  -5.3074  -5.1181  -4.0840
    -4.0572  -3.9297  -3.8646  -3.8443   4.0255   6.7714   6.9383   7.1139
     7.8902   8.3553   9.6434  10.2851  10.3338  10.6972  14.6051  15.0500
    15.4146  16.6374

          k = 0.2500 0.3500 0.3500 (  4801 PWs)   bands (ev):

   -44.9360 -21.4129 -21.2753 -21.2521  -5.6368  -5.3201  -5.1899  -4.0799
    -4.0488  -3.9231  -3.8429  -3.7787   4.0789   6.6110   6.7945   7.1961
     7.6009   8.1873   9.3955  10.3414  10.5550  10.7308  14.6424  15.1218
    15.3375  16.7437

          k = 0.2500 0.3500 0.4500 (  4785 PWs)   bands (ev):

   -44.9357 -21.4122 -21.2891 -21.2515  -5.6010  -5.3357  -5.1333  -4.0714
    -4.0276  -3.8954  -3.8322  -3.7399   4.0770   6.6083   6.6527   6.9807
     7.4002   8.2155   9.0322  10.3525  10.5421  10.8530  14.9169  15.1041
    15.4967  17.0938

          k = 0.2500 0.4500 0.4500 (  4788 PWs)   bands (ev):

   -44.9354 -21.4262 -21.2884 -21.2509  -5.5562  -5.3016  -5.1436  -4.0659
    -4.0042  -3.8720  -3.8155  -3.6768   4.0859   6.4172   6.6880   6.8221
     7.1873   8.1910   8.5482  10.3468  10.5888  11.0129  15.0808  15.2539
    15.5907  17.4431

          k = 0.3500 0.3500 0.3500 (  4803 PWs)   bands (ev):

   -44.9355 -21.4119 -21.2745 -21.2742  -5.5488  -5.3050  -5.2255  -4.0489
    -4.0336  -3.8421  -3.7676  -3.7384   4.2791   6.3235   6.4419   7.0708
     7.5701   7.6074   8.7238  10.6285  10.7265  10.8885  14.8260  15.3109
    15.3155  17.1344

          k = 0.3500 0.3500 0.4500 (  4788 PWs)   bands (ev):

   -44.9352 -21.4112 -21.2881 -21.2738  -5.5334  -5.3060  -5.1926  -4.0362
    -4.0190  -3.7845  -3.7380  -3.7022   4.3981   6.2181   6.2815   6.8914
     7.3636   7.6044   8.2111  10.6826  10.8079  11.0126  15.0865  15.2606
    15.4915  17.5269

          k = 0.3500 0.4500 0.4500 (  4775 PWs)   bands (ev):

   -44.9349 -21.4252 -21.2874 -21.2731  -5.4135  -5.3552  -5.2273  -4.0312
    -3.9989  -3.7525  -3.6846  -3.6349   4.5852   6.0411   6.2149   6.7243
     7.1642   7.5140   7.5952  10.7834  10.9872  11.0133  15.2717  15.3873
    15.5635  17.9048

          k = 0.4500 0.4500 0.4500 (  4764 PWs)   bands (ev):

   -44.9347 -21.4246 -21.2868 -21.2868  -5.4277  -5.2854  -5.2690  -4.0118
    -3.9943  -3.6808  -3.6100  -3.6038   5.1254   5.8474   5.9435   6.6427
     6.7207   7.1404   7.2600  10.9784  10.9912  11.1871  15.4644  15.5420
    15.5423  18.2772

          k =-0.0500 0.1500 0.0500 (  4808 PWs)   bands (ev):

   -44.9390 -21.3712 -21.2198 -21.2198  -6.5053  -5.4854  -5.3607  -4.0674
    -4.0592  -4.0559  -3.9352  -3.9005   5.0758   7.5668   7.5756   8.0244
     9.3292   9.3497   9.9281   9.9654  10.4215  10.4315  13.5417  14.3298
    14.3477  16.0273

          k =-0.0500 0.2500 0.0500 (  4801 PWs)   bands (ev):

   -44.9385 -21.3944 -21.2189 -21.2189  -6.3229  -5.4362  -5.2965  -4.0815
    -4.0691  -4.0660  -4.0005  -3.8907   4.6196   7.5745   7.6348   7.9021
     9.0939   9.1015   9.8784  10.1077  10.4836  10.5812  13.5436  14.7479
    14.7738  16.0311

          k =-0.0500 0.3500 0.0500 (  4799 PWs)   bands (ev):

   -44.9380 -21.4176 -21.2180 -21.2180  -6.1263  -5.3934  -5.2241  -4.1205
    -4.0804  -4.0650  -4.0572  -3.8831   4.2688   7.2048   7.6993   7.8675
     8.8824   8.8999   9.8172  10.3388  10.5397  11.0490  13.5445  15.1538
    15.1834  15.5093

          k =-0.0500 0.4500 0.0500 (  4812 PWs)   bands (ev):

   -44.9377 -21.4318 -21.2175 -21.2174  -5.9941  -5.3734  -5.1737  -4.1635
    -4.0868  -4.0790  -4.0643  -3.8797   4.0876   6.8653   7.7364   7.9289
     8.7471   8.7953   9.7773  10.4237  10.5767  11.5783  13.5418  14.7116
    15.4005  15.4377

          k = 0.1500 0.0500 0.1500 (  4809 PWs)   bands (ev):

   -44.9387 -21.3556 -21.2342 -21.2337  -6.4342  -5.4465  -5.3225  -4.0887
    -4.0581  -4.0550  -3.9407  -3.9065   4.8301   7.5291   7.7341   8.1813
     9.1111   9.2527   9.8459   9.9928  10.2339  10.4231  14.1061  14.1785
    14.2023  16.5965

          k =-0.0500 0.2500 0.1500 (  4797 PWs)   bands (ev):

   -44.9382 -21.3938 -21.2330 -21.2184  -6.2384  -5.4043  -5.2768  -4.0973
    -4.0766  -4.0664  -3.9602  -3.9072   4.4505   7.4430   7.6818   8.0916
     8.8272   9.0809   9.6867  10.0531  10.2593  10.7377  13.8845  14.7535
    14.8060  16.3707

          k = 0.2500 0.0500 0.1500 (  4797 PWs)   bands (ev):

   -44.9382 -21.3547 -21.2567 -21.2330  -6.2927  -5.3874  -5.2604  -4.1033
    -4.0703  -4.0552  -3.9744  -3.9019   4.4849   7.5268   7.7925   8.0872
     8.9096   9.0149   9.7479  10.0190  10.2367  10.5616  14.1500  14.4945
    14.5939  16.5282

          k =-0.0500 0.3500 0.1500 (  4805 PWs)   bands (ev):

   -44.9377 -21.4168 -21.2320 -21.2175  -6.0518  -5.3608  -5.2181  -4.1278
    -4.0778  -4.0735  -3.9918  -3.8996   4.1460   7.1358   7.6606   8.0126
     8.6343   8.9000   9.7835  10.0452  10.3217  11.1083  13.8752  15.1466
    15.1889  15.6999

          k = 0.3500 0.0500 0.1500 (  4805 PWs)   bands (ev):

   -44.9378 -21.3538 -21.2793 -21.2321  -6.1518  -5.3147  -5.2005  -4.1225
    -4.0786  -4.0545  -4.0159  -3.8944   4.2007   7.2747   7.7888   8.1375
     8.6634   9.0038   9.4440  10.0533  10.2880  10.9420  14.1275  14.9116
    15.0039  15.6276

          k =-0.0500 0.4500 0.1500 (  4812 PWs)   bands (ev):

   -44.9374 -21.4310 -21.2314 -21.2169  -5.9309  -5.3344  -5.1794  -4.1530
    -4.0837  -4.0743  -4.0027  -3.8992   3.9821   6.8292   7.6377   8.0810
     8.5127   8.7927   9.8804  10.0235  10.3613  11.3959  13.8592  15.1214
    15.4078  15.4604

          k = 0.4500 0.0500 0.1500 (  4812 PWs)   bands (ev):

   -44.9375 -21.3532 -21.2932 -21.2316  -6.0660  -5.2566  -5.1689  -4.1404
    -4.0839  -4.0540  -4.0355  -3.8928   4.0500   6.9795   7.8586   8.2455
     8.6039   8.8239   9.3431  10.0347  10.3278  11.2705  14.0785  15.0927
    15.1833  15.2786

          k = 0.2500 0.0500 0.2500 (  4800 PWs)   bands (ev):

   -44.9378 -21.3538 -21.2560 -21.2553  -6.1769  -5.3338  -5.1934  -4.1038
    -4.0728  -4.0638  -3.9426  -3.9308   4.2355   7.4637   7.7867   8.0294
     8.5636   8.7238   9.7292   9.9332  10.4263  10.6544  14.4086  14.5563
    14.8812  16.3063

          k =-0.0500 0.3500 0.2500 (  4807 PWs)   bands (ev):

   -44.9373 -21.4157 -21.2545 -21.2166  -5.9462  -5.3168  -5.1716  -4.1199
    -4.0899  -4.0733  -3.9433  -3.8933   3.9551   7.0615   7.7077   7.8892
     8.5416   8.7819   9.2867   9.9719  10.3421  11.0092  14.3551  15.1699
    15.2834  16.0056

          k = 0.3500 0.0500 0.2500 (  4807 PWs)   bands (ev):

   -44.9373 -21.3529 -21.2782 -21.2547  -6.0745  -5.2539  -5.1273  -4.1097
    -4.0768  -4.0661  -3.9545  -3.9196   4.0093   7.2744   7.6371   7.9703
     8.4062   8.7212   9.4173   9.9873  10.4927  10.8506  14.4343  14.9172
    15.1826  15.9488

          k =-0.0500 0.4500 0.2500 (  4798 PWs)   bands (ev):

   -44.9370 -21.4298 -21.2539 -21.2160  -5.8564  -5.2707  -5.1405  -4.1346
    -4.0892  -4.0816  -3.9378  -3.8863   3.8162   6.7771   7.6478   7.8851
     8.4697   8.7363   9.3134  10.0102  10.3338  11.0735  14.3416  15.4169
    15.4435  15.8856

          k = 0.4500 0.0500 0.2500 (  4798 PWs)   bands (ev):

   -44.9370 -21.3523 -21.2920 -21.2540  -6.0200  -5.1825  -5.0929  -4.1197
    -4.0817  -4.0686  -3.9439  -3.9239   3.8815   6.9925   7.6975   7.8345
     8.4554   8.8258   9.1151  10.0601  10.4470  10.9962  14.4093  15.1954
    15.3897  15.7235

          k = 0.3500 0.0500 0.3500 (  4803 PWs)   bands (ev):

   -44.9368 -21.3520 -21.2773 -21.2768  -6.0228  -5.1531  -5.0514  -4.1027
    -4.0824  -4.0668  -3.9687  -3.8759   3.8249   7.2463   7.3252   7.9037
     8.0830   8.7735   9.3952   9.7478  10.5924  10.8747  14.7989  14.9626
    15.3832  16.2235

          k =-0.0500 0.4500 0.3500 (  4794 PWs)   bands (ev):

   -44.9365 -21.4285 -21.2762 -21.2151  -5.8212  -5.2003  -5.0452  -4.1227
    -4.0985  -4.0797  -3.9736  -3.7866   3.6579   6.7326   7.3830   7.8650
     8.3929   8.6706   9.1195   9.7073  10.3189  10.9563  14.7817  15.4236
    15.6277  16.4699

          k = 0.4500 0.0500 0.3500 (  4794 PWs)   bands (ev):

   -44.9365 -21.3514 -21.2908 -21.2764  -6.0027  -5.0639  -5.0095  -4.1056
    -4.0817  -4.0748  -3.9787  -3.8421   3.7155   6.9733   7.3531   7.7593
     8.0505   8.9458   9.1766   9.7284  10.4209  11.0420  14.8604  15.1924
    15.5289  16.3107

          k = 0.4500 0.0500 0.4500 (  4782 PWs)   bands (ev):

   -44.9362 -21.3508 -21.2901 -21.2901  -6.0028  -4.9703  -4.9547  -4.1043
    -4.0805  -4.0762  -4.0065  -3.7890   3.6147   6.8583   7.2121   7.7883
     7.8075   9.0918   9.2130   9.4974  10.1963  11.2232  15.1701  15.2016
    15.6133  16.6558

          k =-0.1500 0.2500 0.1500 (  4805 PWs)   bands (ev):

   -44.9379 -21.3932 -21.2326 -21.2322  -6.1541  -5.3787  -5.2646  -4.1062
    -4.0877  -4.0524  -3.9322  -3.9078   4.3557   7.3978   7.4401   8.1445
     8.7660   8.9262   9.5676  10.1421  10.3323  10.6400  14.1010  14.7541
    14.8086  16.3644

          k =-0.1500 0.3500 0.1500 (  4805 PWs)   bands (ev):

   -44.9375 -21.4162 -21.2316 -21.2313  -5.9726  -5.3366  -5.2268  -4.1293
    -4.0836  -4.0394  -3.9568  -3.9004   4.0965   7.1411   7.2955   7.9847
     8.6660   8.8842   9.4423  10.1589  10.3845  10.9622  14.0316  15.1314
    15.1497  15.8593

          k =-0.1500 0.4500 0.1500 (  4807 PWs)   bands (ev):

   -44.9372 -21.4303 -21.2310 -21.2308  -5.8572  -5.3098  -5.2025  -4.1410
    -4.0808  -4.0240  -3.9756  -3.9029   3.9504   6.8349   7.2270   8.0247
     8.6270   8.8297   9.4201  10.1564  10.4164  11.1277  13.9688  15.3553
    15.3738  15.6438

          k = 0.2500 0.1500 0.2500 (  4811 PWs)   bands (ev):

   -44.9375 -21.3681 -21.2554 -21.2547  -6.0712  -5.3311  -5.2012  -4.1053
    -4.0867  -4.0391  -3.9202  -3.9016   4.2144   7.3015   7.4227   7.9381
     8.3557   8.7623   9.8907  10.0450  10.4437  10.5009  14.4635  14.6721
    14.8487  16.1334

          k =-0.1500 0.3500 0.2500 (  4800 PWs)   bands (ev):

   -44.9370 -21.4150 -21.2540 -21.2305  -5.8591  -5.3118  -5.2021  -4.1179
    -4.0864  -4.0179  -3.9140  -3.8776   3.9995   7.0176   7.2312   7.6699
     8.3175   8.8050   9.4536  10.1978  10.3957  10.7642  14.3329  15.0839
    15.2182  16.1300

          k = 0.3500 0.1500 0.2500 (  4800 PWs)   bands (ev):

   -44.9370 -21.3672 -21.2775 -21.2541  -5.9679  -5.2764  -5.1457  -4.1071
    -4.0774  -4.0183  -3.9211  -3.8953   4.0452   7.1753   7.3175   7.5885
     8.1842   8.7714   9.7294  10.0692  10.4282  10.6855  14.4333  14.9101
    15.1454  16.0925

          k =-0.1500 0.4500 0.2500 (  4793 PWs)   bands (ev):

   -44.9367 -21.4291 -21.2533 -21.2300  -5.7662  -5.2740  -5.1909  -4.1210
    -4.0812  -3.9994  -3.9181  -3.8710   3.8828   6.7778   7.0791   7.6465
     8.3134   8.8738   9.2828  10.2501  10.3899  10.7563  14.3108  15.3208
    15.4248  16.2178

          k = 0.4500 0.1500 0.2500 (  4793 PWs)   bands (ev):

   -44.9367 -21.3666 -21.2913 -21.2534  -5.9141  -5.2372  -5.1033  -4.1063
    -4.0691  -4.0007  -3.9212  -3.9002   3.9422   6.9844   7.1970   7.5177
     8.1620   8.8359   9.5367  10.1308  10.3473  10.7675  14.4162  15.1190
    15.3754  16.1217

          k = 0.3500 0.1500 0.3500 (  4792 PWs)   bands (ev):

   -44.9365 -21.3662 -21.2766 -21.2762  -5.9139  -5.1935  -5.0987  -4.0957
    -4.0685  -3.9950  -3.9146  -3.8589   3.9313   7.1222   7.1607   7.3325
     7.7537   8.7653   9.8138   9.9217  10.2428  10.8772  14.6758  14.9735
    15.3152  16.3970

          k =-0.1500 0.4500 0.3500 (  4792 PWs)   bands (ev):

   -44.9362 -21.4279 -21.2756 -21.2290  -5.7225  -5.2388  -5.1149  -4.1077
    -4.0609  -3.9851  -3.9406  -3.7698   3.7981   6.6947   7.1569   7.2877
     7.7644   8.8598   9.4333   9.9906  10.1052  10.8754  14.7308  15.2945
    15.5384  16.7261

          k = 0.4500 0.1500 0.3500 (  4792 PWs)   bands (ev):

   -44.9362 -21.3656 -21.2902 -21.2758  -5.8949  -5.1318  -5.0612  -4.0909
    -4.0536  -3.9818  -3.9257  -3.8266   3.8544   6.9584   7.1153   7.1871
     7.6387   8.8088   9.6730   9.9512  10.0279  11.0248  14.8009  15.1138
    15.4767  16.6455

          k = 0.4500 0.1500 0.4500 (  4775 PWs)   bands (ev):

   -44.9359 -21.3650 -21.2895 -21.2894  -5.8966  -5.0485  -5.0344  -4.0847
    -4.0263  -3.9688  -3.9522  -3.7731   3.7907   6.8462   7.0916   7.1514
     7.3086   8.8384   9.5634   9.8473   9.8648  11.2161  15.0877  15.1412
    15.5711  16.9668

          k =-0.2500 0.3500 0.2500 (  4799 PWs)   bands (ev):

   -44.9365 -21.4140 -21.2532 -21.2528  -5.7316  -5.3051  -5.2279  -4.0976
    -4.0742  -3.9640  -3.8682  -3.8400   4.0539   6.7620   7.0109   7.3687
     8.1698   8.2223   9.6806  10.4163  10.4749  10.5426  14.4006  15.0722
    15.2170  16.4002

          k =-0.2500 0.4500 0.2500 (  4793 PWs)   bands (ev):

   -44.9362 -21.4280 -21.2525 -21.2522  -5.6382  -5.2800  -5.2365  -4.0952
    -4.0633  -3.9156  -3.8756  -3.8262   3.9810   6.6108   6.8219   7.2401
     8.1541   8.2414   9.4617  10.3483  10.5042  10.6011  14.4740  15.2330
    15.4348  16.6956

          k = 0.3500 0.2500 0.3500 (  4801 PWs)   bands (ev):

   -44.9360 -21.3891 -21.2756 -21.2752  -5.7337  -5.2525  -5.1662  -4.0662
    -4.0567  -3.9091  -3.8248  -3.8214   4.1086   6.6985   6.7008   7.2355
     7.6336   8.1004   9.4432  10.3778  10.4168  10.8821  14.6388  15.0878
    15.3039  16.7337

          k =-0.2500 0.4500 0.3500 (  4785 PWs)   bands (ev):

   -44.9357 -21.4269 -21.2747 -21.2515  -5.5648  -5.2934  -5.2051  -4.0751
    -4.0315  -3.8846  -3.8376  -3.7364   4.0566   6.4283   6.8068   6.9033
     7.5428   8.1715   9.0107  10.3299  10.5936  10.8386  14.8012  15.2440
    15.4978  17.1136

          k = 0.4500 0.2500 0.3500 (  4785 PWs)   bands (ev):

   -44.9357 -21.3885 -21.2891 -21.2748  -5.7167  -5.2256  -5.1316  -4.0590
    -4.0382  -3.8593  -3.8249  -3.7905   4.1073   6.5468   6.6895   6.9648
     7.5178   8.0959   9.0737  10.4036  10.4234  11.0158  14.8666  15.1171
    15.4660  17.0865

          k = 0.4500 0.2500 0.4500 (  4788 PWs)   bands (ev):

   -44.9354 -21.3879 -21.2885 -21.2884  -5.7214  -5.1508  -5.1377  -4.0503
    -4.0169  -3.8220  -3.8104  -3.7418   4.1383   6.5189   6.5362   6.8398
     7.2571   8.0679   8.6307  10.4365  10.4404  11.2048  15.1132  15.1842
    15.5465  17.4236

          k =-0.3500 0.4500 0.3500 (  4788 PWs)   bands (ev):

   -44.9352 -21.4258 -21.2738 -21.2736  -5.4339  -5.3337  -5.2592  -4.0447
    -4.0131  -3.8039  -3.7293  -3.6869   4.3664   6.1160   6.4428   6.7914
     7.4276   7.6020   8.1987  10.7186  10.8580  10.8939  15.0342  15.3364
    15.5001  17.5283

          k = 0.4500 0.3500 0.4500 (  4775 PWs)   bands (ev):

   -44.9349 -21.4106 -21.2875 -21.2874  -5.5421  -5.2362  -5.2226  -4.0157
    -4.0135  -3.7135  -3.6814  -3.6797   4.6323   6.0836   6.0866   6.7724
     7.2576   7.4164   7.6085  10.8140  10.8226  11.1938  15.2932  15.3663
    15.5362  17.9003

     the Fermi energy is    11.3746 ev

!    total energy              =    -364.94260689 Ry
     Harris-Foulkes estimate   =    -364.94260689 Ry
     estimated scf accuracy    <          5.7E-09 Ry

     The total energy is the sum of the following terms:

     one-electron contribution =     -76.19463624 Ry
     hartree contribution      =      69.06325150 Ry
     xc contribution           =     -86.02949125 Ry
     ewald contribution        =    -271.78726505 Ry
     smearing contrib. (-TS)   =       0.00553415 Ry

     convergence has been achieved in  12 iterations

     Forces acting on atoms (cartesian axes, Ry/au):

     atom    1 type  1   force =     0.00000000    0.02124908    0.00000000
     atom    2 type  2   force =     0.00000000   -0.06265049    0.00000000
     atom    3 type  3   force =     0.00000000   -0.00054081    0.00000000
     atom    4 type  3   force =     0.00000000    0.04248303    0.00000000
     atom    5 type  3   force =     0.00000000   -0.00054081    0.00000000

     Total force =     0.075700     Total SCF correction =     0.000063


     Computing stress (Cartesian axis) and pressure

          total   stress  (Ry/bohr**3)                   (kbar)     P=  130.72
   0.00076208   0.00000000   0.00000000        112.11      0.00      0.00
   0.00000000   0.00114179   0.00000000          0.00    167.96      0.00
   0.00000000   0.00000000   0.00076208          0.00      0.00    112.11


     BFGS Geometry Optimization

     number of scf cycles    =   1
     number of bfgs steps    =   0

     energy   new            =    -364.9426068882 Ry

     new trust radius        =       0.0626504904 bohr
     new conv_thr            =       0.0000000100 Ry


ATOMIC_POSITIONS (crystal)
Pb       0.000000000   0.000000000   0.000000000    0   0   0
Ti       0.500000000   0.539476124   0.500000000
O        0.500000000   0.499926420   0.000000000
O        0.500000000   0.005780004   0.500000000
O        0.000000000   0.499926420   0.500000000



     Writing output data file PbTiO3.save/
     NEW-OLD atomic charge density approx. for the potential

     Check: negative core charge=   -0.000005

     total cpu time spent up to now is      443.4 secs

     Self-consistent Calculation

     iteration #  1     ecut=    80.00 Ry     beta= 0.70
     Davidson diagonalization with overlap
     c_bands:  1 eigenvalues not converged
     ethr =  1.00E-06,  avg # of iterations =  5.4

     total cpu time spent up to now is      509.2 secs

     total energy              =    -364.94569425 Ry
     Harris-Foulkes estimate   =    -364.94725978 Ry
     estimated scf accuracy    <       0.00224876 Ry

     iteration #  2     ecut=    80.00 Ry     beta= 0.70
     Davidson diagonalization with overlap
     ethr =  5.11E-06,  avg # of iterations =  4.3

     total cpu time spent up to now is      551.3 secs

     total energy              =    -364.94541980 Ry
     Harris-Foulkes estimate   =    -364.94734860 Ry
     estimated scf accuracy    <       0.00438035 Ry

     iteration #  3     ecut=    80.00 Ry     beta= 0.70
     Davidson diagonalization with overlap
     ethr =  5.11E-06,  avg # of iterations =  3.7

     total cpu time spent up to now is      589.5 secs

     total energy              =    -364.94639862 Ry
     Harris-Foulkes estimate   =    -364.94665194 Ry
     estimated scf accuracy    <       0.00072348 Ry

     iteration #  4     ecut=    80.00 Ry     beta= 0.70
     Davidson diagonalization with overlap
     ethr =  1.64E-06,  avg # of iterations =  3.0

     total cpu time spent up to now is      620.2 secs

     total energy              =    -364.94651057 Ry
     Harris-Foulkes estimate   =    -364.94651574 Ry
     estimated scf accuracy    <       0.00001046 Ry

     iteration #  5     ecut=    80.00 Ry     beta= 0.70
     Davidson diagonalization with overlap
     ethr =  2.38E-08,  avg # of iterations =  3.5

     total cpu time spent up to now is      659.1 secs

     total energy              =    -364.94651532 Ry
     Harris-Foulkes estimate   =    -364.94651643 Ry
     estimated scf accuracy    <       0.00000212 Ry

     iteration #  6     ecut=    80.00 Ry     beta= 0.70
     Davidson diagonalization with overlap
     ethr =  4.82E-09,  avg # of iterations =  3.1

     total cpu time spent up to now is      694.2 secs

     total energy              =    -364.94651575 Ry
     Harris-Foulkes estimate   =    -364.94651642 Ry
     estimated scf accuracy    <       0.00000190 Ry

     iteration #  7     ecut=    80.00 Ry     beta= 0.70
     Davidson diagonalization with overlap
     ethr =  4.31E-09,  avg # of iterations =  2.5

     total cpu time spent up to now is      724.9 secs

     total energy              =    -364.94651608 Ry
     Harris-Foulkes estimate   =    -364.94651609 Ry
     estimated scf accuracy    <       0.00000003 Ry

     iteration #  8     ecut=    80.00 Ry     beta= 0.70
     Davidson diagonalization with overlap
     ethr =  7.19E-11,  avg # of iterations =  3.8

     total cpu time spent up to now is      765.7 secs

     End of self-consistent calculation

          k = 0.0500 0.0500 0.0500 (  4830 PWs)   bands (ev):

   -45.0401 -21.3843 -21.3229 -21.3228  -6.6152  -5.4984  -5.4296  -4.0453
    -4.0339  -4.0335  -3.8920  -3.8857   5.4787   7.5326   7.5626   7.7534
     9.6887   9.7119   9.9440  10.2171  10.3929  10.4477  13.4645  13.7923
    13.7945  15.9147

          k = 0.0500 0.0500 0.1500 (  4808 PWs)   bands (ev):

   -45.0398 -21.3838 -21.3370 -21.3224  -6.5209  -5.4615  -5.3922  -4.0555
    -4.0438  -4.0329  -3.9277  -3.8799   5.1068   7.5885   7.6362   7.9957
     9.4686   9.5879   9.9337  10.0831  10.2347  10.4399  13.7898  13.8236
    13.9733  16.0409

          k = 0.0500 0.0500 0.2500 (  4801 PWs)   bands (ev):

   -45.0393 -21.3830 -21.3596 -21.3215  -6.3637  -5.3980  -5.3311  -4.0736
    -4.0595  -4.0318  -3.9898  -3.8699   4.6720   7.6191   7.7581   7.9586
     9.2726   9.3360   9.8708  10.0172  10.2261  10.5191  13.7973  14.3264
    14.3862  16.0374

          k = 0.0500 0.0500 0.3500 (  4799 PWs)   bands (ev):

   -45.0388 -21.3832 -21.3810 -21.3207  -6.1998  -5.3272  -5.2708  -4.1027
    -4.0744  -4.0467  -4.0307  -3.8620   4.3460   7.2439   7.9290   8.0729
     8.9538   9.0503   9.7966  10.0106  10.3498  10.9696  13.7976  14.7923
    14.8415  15.4381

          k = 0.0500 0.0500 0.4500 (  4812 PWs)   bands (ev):

   -45.0385 -21.3961 -21.3815 -21.3201  -6.0946  -5.2768  -5.2363  -4.1370
    -4.0840  -4.0685  -4.0300  -3.8583   4.1823   6.9167   8.0861   8.3043
     8.6780   8.7644   9.7500  10.0390  10.4002  11.4842  13.7909  14.6591
    15.0699  15.1348

          k = 0.0500 0.1500 0.1500 (  4809 PWs)   bands (ev):

   -45.0395 -21.3981 -21.3364 -21.3218  -6.4195  -5.4286  -5.3624  -4.0600
    -4.0533  -4.0419  -3.9196  -3.8979   4.8408   7.5388   7.6513   8.1968
     9.1930   9.4138   9.8400  10.0499  10.2028  10.4820  13.8161  14.0987
    14.2322  16.2222

          k = 0.0500 0.1500 0.2500 (  4797 PWs)   bands (ev):

   -45.0390 -21.3972 -21.3590 -21.3210  -6.2676  -5.3752  -5.3048  -4.0825
    -4.0639  -4.0413  -3.9512  -3.8875   4.4942   7.5045   7.7668   8.0872
     8.9880   9.2048   9.6868  10.0212  10.1048  10.6884  14.0917  14.3303
    14.5736  16.2777

          k = 0.0500 0.1500 0.3500 (  4805 PWs)   bands (ev):

   -45.0385 -21.3963 -21.3815 -21.3201  -6.1126  -5.3224  -5.2392  -4.1075
    -4.0742  -4.0407  -3.9820  -3.8794   4.2123   7.2233   7.8556   8.0871
     8.7145   8.9957   9.6653  10.0288  10.0933  11.0162  14.0880  14.7893
    14.9707  15.6096

          k = 0.0500 0.1500 0.4500 (  4812 PWs)   bands (ev):

   -45.0382 -21.3960 -21.3950 -21.3196  -6.0156  -5.2887  -5.1951  -4.1266
    -4.0833  -4.0402  -3.9931  -3.8786   4.0644   6.9229   7.9341   8.2630
     8.5501   8.7122   9.7213  10.0597  10.0825  11.2799  14.0720  15.0534
    15.0890  15.2347

          k = 0.0500 0.2500 0.2500 (  4800 PWs)   bands (ev):

   -45.0385 -21.4202 -21.3580 -21.3201  -6.1145  -5.3381  -5.2513  -4.0891
    -4.0668  -4.0518  -3.9175  -3.9066   4.2294   7.3876   7.8069   7.9628
     8.7711   8.8836   9.4238   9.9381  10.3197  10.8481  14.3086  14.5570
    14.8812  16.2337

          k = 0.0500 0.2500 0.3500 (  4807 PWs)   bands (ev):

   -45.0381 -21.4191 -21.3804 -21.3192  -5.9866  -5.2986  -5.1750  -4.1000
    -4.0733  -4.0534  -3.9288  -3.8826   4.0035   7.1930   7.6867   7.9808
     8.5118   8.8581   9.2861   9.8103  10.4513  10.9044  14.5309  14.7807
    15.1804  15.9132

          k = 0.0500 0.2500 0.4500 (  4798 PWs)   bands (ev):

   -45.0378 -21.4184 -21.3941 -21.3186  -5.9149  -5.2663  -5.1220  -4.1091
    -4.0818  -4.0546  -3.9195  -3.8793   3.8779   6.9298   7.7182   7.9364
     8.4585   8.8021   9.2437   9.8071  10.4795  10.9124  14.5253  15.0451
    15.3949  15.7107

          k = 0.0500 0.3500 0.3500 (  4803 PWs)   bands (ev):

   -45.0376 -21.4418 -21.3792 -21.3183  -5.8919  -5.2276  -5.1075  -4.0975
    -4.0762  -4.0586  -3.9490  -3.8205   3.8057   7.0540   7.3624   7.9891
     8.3663   8.7337   9.1627   9.6992  10.5811  10.8241  14.7492  14.9822
    15.3981  16.2341

          k = 0.0500 0.3500 0.4500 (  4794 PWs)   bands (ev):

   -45.0373 -21.4410 -21.3930 -21.3177  -5.8599  -5.1789  -5.0425  -4.0998
    -4.0804  -4.0625  -3.9573  -3.7820   3.6978   6.8991   7.2340   8.0007
     8.2327   8.8819   9.0342   9.6111  10.4176  10.9049  14.9676  15.0270
    15.5765  16.3107

          k = 0.0500 0.4500 0.4500 (  4782 PWs)   bands (ev):

   -45.0370 -21.4549 -21.3922 -21.3172  -5.8478  -5.0925  -4.9901  -4.1013
    -4.0794  -4.0657  -3.9803  -3.7247   3.5900   6.7357   7.0762   8.0239
     8.1227   8.8477   9.0760   9.5170  10.1129  11.0971  15.0061  15.2459
    15.7050  16.6976

          k = 0.1500 0.1500 0.1500 (  4818 PWs)   bands (ev):

   -45.0392 -21.3976 -21.3360 -21.3356  -6.3296  -5.4013  -5.3328  -4.0692
    -4.0634  -4.0415  -3.9089  -3.9030   4.6643   7.5077   7.5465   8.3348
     9.0270   9.1352   9.8729  10.1060  10.2285  10.3826  14.0676  14.2200
    14.2421  16.7623

          k = 0.1500 0.1500 0.2500 (  4805 PWs)   bands (ev):

   -45.0387 -21.3967 -21.3584 -21.3349  -6.1838  -5.3586  -5.2785  -4.0902
    -4.0636  -4.0378  -3.9282  -3.8872   4.3984   7.4484   7.5275   8.1339
     8.7736   8.9572   9.8306  10.0788  10.2158  10.5845  14.1875  14.4701
    14.5701  16.3465

          k = 0.1500 0.1500 0.3500 (  4805 PWs)   bands (ev):

   -45.0382 -21.3958 -21.3808 -21.3340  -6.0391  -5.3170  -5.2148  -4.1071
    -4.0554  -4.0310  -3.9555  -3.8791   4.1611   7.2169   7.5074   7.9392
     8.5735   9.0256   9.5195  10.1578  10.2349  10.8673  14.1233  14.8432
    14.9613  15.7996

          k = 0.1500 0.1500 0.4500 (  4807 PWs)   bands (ev):

   -45.0380 -21.3954 -21.3944 -21.3335  -5.9516  -5.2914  -5.1693  -4.1139
    -4.0494  -4.0221  -3.9760  -3.8801   4.0303   6.9303   7.4775   7.9848
     8.4898   9.1130   9.2877  10.2139  10.2275  11.0201  14.0573  15.0878
    15.2221  15.5396

          k = 0.1500 0.2500 0.2500 (  4811 PWs)   bands (ev):

   -45.0382 -21.4196 -21.3574 -21.3340  -6.0269  -5.3251  -5.2535  -4.0924
    -4.0730  -4.0243  -3.8959  -3.8870   4.2183   7.2981   7.3968   7.9400
     8.4263   8.7734   9.8136  10.0589  10.3589  10.6683  14.3545  14.5950
    14.8239  16.1191

          k = 0.1500 0.2500 0.3500 (  4800 PWs)   bands (ev):

   -45.0378 -21.4185 -21.3797 -21.3331  -5.9003  -5.3089  -5.1833  -4.0964
    -4.0620  -4.0111  -3.9006  -3.8655   4.0475   7.1494   7.3312   7.6255
     8.1505   8.8269   9.7414   9.9744  10.4734  10.6717  14.4211  14.8024
    15.1053  16.0753

          k = 0.1500 0.2500 0.4500 (  4793 PWs)   bands (ev):

   -45.0375 -21.4179 -21.3935 -21.3325  -5.8303  -5.2979  -5.1289  -4.0955
    -4.0522  -4.0053  -3.8941  -3.8649   3.9452   6.9294   7.2544   7.5462
     8.0895   8.9286   9.5233  10.0606  10.4736  10.6263  14.4078  15.0276
    15.3262  16.1230

          k = 0.1500 0.3500 0.3500 (  4792 PWs)   bands (ev):

   -45.0373 -21.4412 -21.3786 -21.3322  -5.7940  -5.2576  -5.1505  -4.0905
    -4.0527  -3.9905  -3.9067  -3.8042   3.9164   6.9941   7.2331   7.3636
     7.7661   8.7971   9.7126   9.9164  10.3270  10.7769  14.6401  14.9285
    15.2934  16.3947

          k = 0.1500 0.3500 0.4500 (  4792 PWs)   bands (ev):

   -45.0370 -21.4405 -21.3923 -21.3316  -5.7606  -5.2358  -5.0887  -4.0858
    -4.0333  -3.9899  -3.9133  -3.7658   3.8393   6.8847   7.1397   7.2569
     7.6001   8.8633   9.6454   9.8735  10.0700  10.8977  14.8290  14.9998
    15.4632  16.6493

          k = 0.1500 0.4500 0.4500 (  4775 PWs)   bands (ev):

   -45.0367 -21.4543 -21.3916 -21.3310  -5.7464  -5.1599  -5.0653  -4.0815
    -4.0072  -3.9723  -3.9445  -3.7071   3.7654   6.7138   7.0389   7.2782
     7.3728   8.8694   9.4808   9.7798   9.9099  11.0839  14.9748  15.1399
    15.5799  16.9955

          k = 0.2500 0.2500 0.2500 (  4794 PWs)   bands (ev):

   -45.0378 -21.4186 -21.3567 -21.3562  -5.8935  -5.3063  -5.2431  -4.0784
    -4.0759  -3.9908  -3.8701  -3.8580   4.1742   7.0749   7.1387   7.8162
     8.1940   8.2826  10.0611  10.3303  10.3824  10.4871  14.3525  14.7920
    14.8034  16.1387

          k = 0.2500 0.2500 0.3500 (  4799 PWs)   bands (ev):

   -45.0373 -21.4176 -21.3787 -21.3555  -5.7786  -5.3035  -5.1934  -4.0732
    -4.0557  -3.9503  -3.8518  -3.8383   4.1003   6.8955   7.0061   7.4029
     7.9450   8.2560   9.9030  10.3063  10.4014  10.6326  14.4080  14.8804
    15.0959  16.3609

          k = 0.2500 0.2500 0.4500 (  4793 PWs)   bands (ev):

   -45.0370 -21.4170 -21.3924 -21.3549  -5.7213  -5.3075  -5.1406  -4.0680
    -4.0419  -3.9078  -3.8515  -3.8333   4.0435   6.7739   6.9281   7.1274
     7.9006   8.3018   9.6506  10.3316  10.3703  10.6947  14.4996  15.0062
    15.3164  16.6381

          k = 0.2500 0.3500 0.3500 (  4801 PWs)   bands (ev):

   -45.0368 -21.4402 -21.3777 -21.3545  -5.6428  -5.2920  -5.2108  -4.0607
    -4.0333  -3.9028  -3.8283  -3.7727   4.1059   6.6682   6.7920   7.1968
     7.5434   8.1268   9.4387  10.3973  10.5266  10.7767  14.5921  15.0121
    15.2372  16.7189

          k = 0.2500 0.3500 0.4500 (  4785 PWs)   bands (ev):

   -45.0365 -21.4395 -21.3913 -21.3539  -5.6058  -5.3052  -5.1545  -4.0529
    -4.0134  -3.8676  -3.8229  -3.7344   4.1006   6.6104   6.7020   6.9396
     7.3822   8.1502   9.0562  10.4244  10.5143  10.9000  14.8245  15.0365
    15.4038  17.0875

          k = 0.2500 0.4500 0.4500 (  4788 PWs)   bands (ev):

   -45.0362 -21.4534 -21.3907 -21.3533  -5.5804  -5.2506  -5.1641  -4.0465
    -3.9898  -3.8410  -3.8089  -3.6734   4.1129   6.4965   6.6569   6.7987
     7.1310   8.1291   8.5797  10.4204  10.5556  11.0690  15.0242  15.1396
    15.5075  17.4416

          k = 0.3500 0.3500 0.3500 (  4803 PWs)   bands (ev):

   -45.0363 -21.4392 -21.3768 -21.3766  -5.5283  -5.2977  -5.2478  -4.0287
    -4.0202  -3.8198  -3.7522  -3.7338   4.3012   6.3738   6.4381   7.0828
     7.5133   7.5283   8.7433  10.6923  10.7656  10.8705  14.7705  15.2135
    15.2210  17.1183

          k = 0.3500 0.3500 0.4500 (  4788 PWs)   bands (ev):

   -45.0361 -21.4386 -21.3904 -21.3761  -5.4986  -5.3126  -5.2122  -4.0183
    -4.0039  -3.7584  -3.7286  -3.6948   4.4147   6.2255   6.3263   6.8689
     7.3256   7.5328   8.2209  10.7449  10.8495  10.9919  15.0101  15.1850
    15.4024  17.5243

          k = 0.3500 0.4500 0.4500 (  4775 PWs)   bands (ev):

   -45.0358 -21.4524 -21.3897 -21.3755  -5.4165  -5.3232  -5.2460  -4.0114
    -3.9853  -3.7182  -3.6801  -3.6316   4.6128   6.0905   6.1889   6.7147
     7.1161   7.4646   7.5880  10.8513  10.9708  11.0572  15.2060  15.2932
    15.4759  17.9087

          k = 0.4500 0.4500 0.4500 (  4764 PWs)   bands (ev):

   -45.0355 -21.4518 -21.3891 -21.3891  -5.3799  -5.3021  -5.2869  -3.9912
    -3.9816  -3.6446  -3.6064  -3.6007   5.1484   5.8872   5.9361   6.6225
     6.7312   7.1069   7.1701  11.0408  11.0517  11.1550  15.3921  15.4562
    15.4581  18.2886

          k =-0.0500 0.1500 0.0500 (  4808 PWs)   bands (ev):

   -45.0398 -21.3987 -21.3224 -21.3223  -6.5118  -5.4627  -5.3941  -4.0454
    -4.0448  -4.0421  -3.9241  -3.8846   5.1007   7.5814   7.5873   8.0061
     9.4669   9.5013   9.9417  10.0451  10.4133  10.4213  13.4657  14.0893
    14.1009  15.9160

          k =-0.0500 0.2500 0.0500 (  4801 PWs)   bands (ev):

   -45.0393 -21.4218 -21.3215 -21.3214  -6.3374  -5.4062  -5.3322  -4.0671
    -4.0554  -4.0433  -3.9878  -3.8743   4.6551   7.5942   7.6802   7.9080
     9.1818   9.2117   9.8914  10.1216  10.4568  10.5726  13.4677  14.5418
    14.5608  15.9182

          k =-0.0500 0.3500 0.0500 (  4799 PWs)   bands (ev):

   -45.0388 -21.4447 -21.3206 -21.3206  -6.1525  -5.3528  -5.2630  -4.1034
    -4.0670  -4.0441  -4.0422  -3.8663   4.3179   7.1986   7.7814   7.9303
     8.9321   8.9368   9.8280  10.3162  10.5087  11.0402  13.4685  14.9733
    14.9951  15.5026

          k =-0.0500 0.4500 0.0500 (  4812 PWs)   bands (ev):

   -45.0385 -21.4588 -21.3201 -21.3200  -6.0310  -5.3227  -5.2154  -4.1433
    -4.0736  -4.0663  -4.0414  -3.8625   4.1470   6.8451   7.8515   8.0388
     8.7465   8.7845   9.7869  10.3946  10.5444  11.5617  13.4660  14.7093
    15.2337  15.2589

          k = 0.1500 0.0500 0.1500 (  4809 PWs)   bands (ev):

   -45.0395 -21.3833 -21.3366 -21.3362  -6.4303  -5.4316  -5.3538  -4.0674
    -4.0444  -4.0411  -3.9244  -3.8950   4.8486   7.5344   7.6993   8.1865
     9.2661   9.2951   9.9823   9.9881  10.1861  10.4784  13.9428  13.9934
    14.0982  16.3500

          k =-0.0500 0.2500 0.1500 (  4797 PWs)   bands (ev):

   -45.0390 -21.4212 -21.3355 -21.3209  -6.2510  -5.3759  -5.3099  -4.0815
    -4.0562  -4.0506  -3.9490  -3.8914   4.4835   7.4695   7.7192   8.0770
     8.9000   9.1699   9.6968  10.0906  10.2366  10.7212  13.8150  14.5507
    14.6387  16.2624

          k = 0.2500 0.0500 0.1500 (  4797 PWs)   bands (ev):

   -45.0390 -21.3825 -21.3590 -21.3355  -6.2820  -5.3783  -5.2905  -4.0846
    -4.0558  -4.0413  -3.9569  -3.8888   4.5024   7.5159   7.7796   8.0879
     8.9513   9.1229   9.7442  10.0738  10.2305  10.6231  13.9632  14.3756
    14.5206  16.3969

          k =-0.0500 0.3500 0.1500 (  4805 PWs)   bands (ev):

   -45.0385 -21.4440 -21.3345 -21.3200  -6.0767  -5.3211  -5.2530  -4.1097
    -4.0633  -4.0518  -3.9810  -3.8833   4.1900   7.1563   7.7241   8.0300
     8.6722   8.9487   9.7618  10.0789  10.2888  11.0874  13.8069  14.9805
    15.0321  15.6870

          k = 0.3500 0.0500 0.1500 (  4805 PWs)   bands (ev):

   -45.0385 -21.3826 -21.3804 -21.3346  -6.1328  -5.3142  -5.2281  -4.1067
    -4.0641  -4.0407  -3.9946  -3.8808   4.2196   7.2360   7.8107   8.1185
     8.6693   9.0430   9.5262  10.0903  10.2936  10.9875  13.9509  14.8211
    14.9333  15.6456

          k =-0.0500 0.4500 0.1500 (  4812 PWs)   bands (ev):

   -45.0382 -21.4581 -21.3340 -21.3195  -5.9664  -5.2832  -5.2175  -4.1327
    -4.0705  -4.0515  -3.9925  -3.8823   4.0346   6.8322   7.7274   8.1409
     8.5279   8.7876   9.8528  10.0544  10.3251  11.3726  13.7917  15.1060
    15.2448  15.3230

          k = 0.4500 0.0500 0.1500 (  4812 PWs)   bands (ev):

   -45.0382 -21.3954 -21.3810 -21.3340  -6.0410  -5.2643  -5.1929  -4.1256
    -4.0706  -4.0402  -4.0108  -3.8792   4.0708   6.9264   7.8856   8.2487
     8.5656   8.7912   9.5191  10.0693  10.3356  11.2949  13.9253  15.0904
    15.1183  15.1930

          k = 0.2500 0.0500 0.2500 (  4800 PWs)   bands (ev):

   -45.0385 -21.3816 -21.3583 -21.3577  -6.1561  -5.3337  -5.2231  -4.0876
    -4.0589  -4.0497  -3.9213  -3.9169   4.2486   7.4505   7.7895   8.0144
     8.7019   8.7484   9.6409   9.9679  10.4159  10.7273  14.2999  14.4290
    14.8231  16.3015

          k =-0.0500 0.3500 0.2500 (  4807 PWs)   bands (ev):

   -45.0381 -21.4429 -21.3570 -21.3192  -5.9702  -5.2824  -5.1951  -4.1013
    -4.0686  -4.0585  -3.9291  -3.8837   3.9916   7.1091   7.6913   7.9178
     8.5532   8.8154   9.2905   9.9483  10.4121  10.9765  14.2984  14.9842
    15.1832  15.9826

          k = 0.3500 0.0500 0.2500 (  4807 PWs)   bands (ev):

   -45.0381 -21.3817 -21.3794 -21.3570  -6.0429  -5.2649  -5.1556  -4.0956
    -4.0632  -4.0524  -3.9348  -3.8993   4.0206   7.2345   7.6522   7.9862
     8.4807   8.7709   9.3634   9.9722  10.5029  10.8777  14.3361  14.8213
    15.1334  15.9536

          k =-0.0500 0.4500 0.2500 (  4798 PWs)   bands (ev):

   -45.0378 -21.4569 -21.3563 -21.3186  -5.8901  -5.2216  -5.1700  -4.1142
    -4.0697  -4.0653  -3.9218  -3.8788   3.8580   6.8111   7.6670   7.8968
     8.5086   8.7448   9.2876   9.9791  10.4048  11.0397  14.2864  15.2481
    15.3589  15.8412

          k = 0.4500 0.0500 0.2500 (  4798 PWs)   bands (ev):

   -45.0378 -21.3942 -21.3801 -21.3564  -5.9819  -5.2021  -5.1181  -4.1059
    -4.0688  -4.0547  -3.9241  -3.9014   3.8927   6.9407   7.7177   7.8652
     8.5251   8.8090   9.1328  10.0241  10.4703  10.9877  14.3239  15.1092
    15.3390  15.7363

          k = 0.3500 0.0500 0.3500 (  4803 PWs)   bands (ev):

   -45.0376 -21.3812 -21.3791 -21.3781  -5.9808  -5.1735  -5.0798  -4.0899
    -4.0685  -4.0540  -3.9519  -3.8481   3.8308   7.2258   7.2742   7.9767
     8.2172   8.7555   9.3125   9.7314  10.6143  10.8523  14.7390  14.8622
    15.3493  16.2263

          k =-0.0500 0.4500 0.3500 (  4794 PWs)   bands (ev):

   -45.0373 -21.4557 -21.3785 -21.3177  -5.8535  -5.1467  -5.0721  -4.1026
    -4.0760  -4.0662  -3.9583  -3.7815   3.6896   6.7845   7.3201   7.9112
     8.3583   8.7301   9.1052   9.6825  10.3854  10.9571  14.7434  15.2472
    15.5533  16.4295

          k = 0.4500 0.0500 0.3500 (  4794 PWs)   bands (ev):

   -45.0373 -21.3931 -21.3800 -21.3778  -5.9564  -5.0898  -5.0363  -4.0931
    -4.0684  -4.0615  -3.9613  -3.8128   3.7191   6.9324   7.2988   7.8668
     8.1839   8.9071   9.1202   9.6903  10.4220  11.0135  14.7905  15.1072
    15.5047  16.3306

          k = 0.4500 0.0500 0.4500 (  4782 PWs)   bands (ev):

   -45.0370 -21.3924 -21.3923 -21.3785  -5.9538  -4.9976  -4.9826  -4.0923
    -4.0674  -4.0637  -3.9867  -3.7587   3.6144   6.8275   7.1272   7.9241
     7.9504   9.0366   9.1399   9.4740  10.1706  11.1920  15.0931  15.1147
    15.6138  16.6645

          k =-0.1500 0.2500 0.1500 (  4805 PWs)   bands (ev):

   -45.0387 -21.4206 -21.3351 -21.3347  -6.1637  -5.3504  -5.2978  -4.0896
    -4.0675  -4.0375  -3.9218  -3.8914   4.3864   7.4488   7.4516   8.1331
     8.7940   8.9568   9.6679  10.1753  10.2942  10.6153  14.0399  14.5990
    14.6394  16.3656

          k =-0.1500 0.3500 0.1500 (  4805 PWs)   bands (ev):

   -45.0382 -21.4434 -21.3341 -21.3338  -5.9952  -5.2953  -5.2614  -4.1106
    -4.0623  -4.0262  -3.9473  -3.8835   4.1373   7.1587   7.3712   7.9584
     8.6509   8.9588   9.4659  10.1965  10.3455  10.9349  13.9723  14.9922
    15.0048  15.8421

          k =-0.1500 0.4500 0.1500 (  4807 PWs)   bands (ev):

   -45.0379 -21.4574 -21.3335 -21.3333  -5.8910  -5.2575  -5.2381  -4.1206
    -4.0588  -4.0123  -3.9668  -3.8852   3.9990   6.8385   7.3152   8.0079
     8.5911   8.9311   9.3969  10.1954  10.3760  11.1019  13.9079  15.2310
    15.2432  15.6111

          k = 0.2500 0.1500 0.2500 (  4811 PWs)   bands (ev):

   -45.0382 -21.3958 -21.3577 -21.3571  -6.0548  -5.3259  -5.2306  -4.0896
    -4.0707  -4.0233  -3.9003  -3.8902   4.2310   7.3208   7.4255   7.9392
     8.3928   8.7498   9.9635  10.0221  10.4372  10.5359  14.3767  14.5465
    14.7715  16.1239

          k =-0.1500 0.3500 0.2500 (  4800 PWs)   bands (ev):

   -45.0378 -21.4423 -21.3564 -21.3331  -5.8791  -5.2792  -5.2243  -4.0987
    -4.0665  -4.0041  -3.8991  -3.8679   4.0346   7.0758   7.2662   7.6348
     8.2804   8.7875   9.5638  10.1644  10.4486  10.7297  14.2865  14.9397
    15.1074  16.1026

          k = 0.3500 0.1500 0.2500 (  4800 PWs)   bands (ev):

   -45.0378 -21.3949 -21.3797 -21.3564  -5.9400  -5.2827  -5.1725  -4.0927
    -4.0617  -4.0038  -3.9024  -3.8790   4.0592   7.1682   7.3318   7.5932
     8.2021   8.7704   9.7245  10.0962  10.4684  10.6716  14.3436  14.8307
    15.0679  16.0807

          k =-0.1500 0.4500 0.2500 (  4793 PWs)   bands (ev):

   -45.0375 -21.4562 -21.3558 -21.3325  -5.7976  -5.2341  -5.2089  -4.1005
    -4.0603  -3.9884  -3.9000  -3.8640   3.9237   6.8149   7.1296   7.6135
     8.2629   8.8610   9.3776  10.2242  10.4288  10.7335  14.2576  15.1841
    15.3181  16.1950

          k = 0.4500 0.1500 0.2500 (  4793 PWs)   bands (ev):

   -45.0375 -21.3944 -21.3933 -21.3558  -5.8792  -5.2512  -5.1274  -4.0923
    -4.0536  -3.9889  -3.8992  -3.8833   3.9557   6.9379   7.2196   7.5426
     8.1716   8.8497   9.5162  10.1560  10.3967  10.7404  14.3181  15.0662
    15.2915  16.1303

          k = 0.3500 0.1500 0.3500 (  4792 PWs)   bands (ev):

   -45.0373 -21.3940 -21.3788 -21.3785  -5.8734  -5.2104  -5.1251  -4.0829
    -4.0516  -3.9831  -3.9027  -3.8314   3.9391   7.1299   7.1680   7.3393
     7.7583   8.7561   9.8253   9.9146  10.2669  10.8548  14.6265  14.8748
    15.2554  16.3842

          k =-0.1500 0.4500 0.3500 (  4792 PWs)   bands (ev):

   -45.0370 -21.4551 -21.3780 -21.3316  -5.7523  -5.1884  -5.1377  -4.0878
    -4.0403  -3.9735  -3.9219  -3.7651   3.8301   6.7607   7.1742   7.2391
     7.7161   8.8271   9.5299   9.9889  10.0899  10.9113  14.6859  15.1520
    15.4522  16.7026

          k = 0.4500 0.1500 0.3500 (  4792 PWs)   bands (ev):

   -45.0370 -21.3935 -21.3922 -21.3780  -5.8493  -5.1542  -5.0855  -4.0786
    -4.0364  -3.9717  -3.9136  -3.7970   3.8592   6.9231   7.1514   7.2025
     7.6468   8.8014   9.6610   9.9582  10.0399  10.9976  14.7276  15.0446
    15.4204  16.6540

          k = 0.4500 0.1500 0.4500 (  4775 PWs)   bands (ev):

   -45.0367 -21.3930 -21.3917 -21.3915  -5.8476  -5.0722  -5.0587  -4.0727
    -4.0078  -3.9595  -3.9412  -3.7420   3.7905   6.8171   7.0812   7.2214
     7.3099   8.8261   9.5427   9.8474   9.8681  11.1849  15.0156  15.0582
    15.5357  16.9792

          k =-0.2500 0.3500 0.2500 (  4799 PWs)   bands (ev):

   -45.0373 -21.4412 -21.3556 -21.3553  -5.7441  -5.2686  -5.2560  -4.0779
    -4.0566  -3.9484  -3.8512  -3.8335   4.0856   6.8240   7.0258   7.3573
     8.1143   8.1714   9.7957  10.4009  10.4477  10.5848  14.3610  14.9527
    15.1016  16.3697

          k =-0.2500 0.4500 0.2500 (  4793 PWs)   bands (ev):

   -45.0370 -21.4552 -21.3550 -21.3547  -5.6657  -5.2642  -5.2279  -4.0746
    -4.0447  -3.9003  -3.8592  -3.8211   4.0190   6.6756   6.8370   7.2073
     8.0890   8.2005   9.5579  10.3504  10.4795  10.6443  14.4225  15.1174
    15.3233  16.6769

          k = 0.3500 0.2500 0.3500 (  4801 PWs)   bands (ev):

   -45.0368 -21.4166 -21.3778 -21.3776  -5.6979  -5.2621  -5.1902  -4.0533
    -4.0375  -3.8953  -3.8175  -3.7970   4.1215   6.7136   6.7493   7.2265
     7.5693   8.0692   9.4603  10.4266  10.4437  10.8601  14.5892  14.9895
    15.2208  16.7147

          k =-0.2500 0.4500 0.3500 (  4785 PWs)   bands (ev):

   -45.0365 -21.4541 -21.3770 -21.3539  -5.5896  -5.2483  -5.2228  -4.0550
    -4.0152  -3.8603  -3.8273  -3.7323   4.0889   6.4951   6.8043   6.8782
     7.4798   8.1148   9.0514  10.3918  10.5601  10.8932  14.7499  15.1276
    15.4014  17.0977

          k = 0.4500 0.2500 0.3500 (  4785 PWs)   bands (ev):

   -45.0365 -21.4160 -21.3914 -21.3771  -5.6732  -5.2426  -5.1532  -4.0462
    -4.0190  -3.8486  -3.8173  -3.7633   4.1156   6.5722   6.7379   6.9298
     7.4636   8.0697   9.0754  10.4378  10.4656  10.9899  14.7891  15.0497
    15.3869  17.0849

          k = 0.4500 0.2500 0.4500 (  4788 PWs)   bands (ev):

   -45.0362 -21.4154 -21.3907 -21.3907  -5.6727  -5.1710  -5.1586  -4.0381
    -3.9966  -3.8154  -3.8045  -3.7097   4.1387   6.5628   6.5889   6.8136
     7.1705   8.0503   8.6172  10.4734  10.4746  11.1734  15.0388  15.1002
    15.4865  17.4324

          k =-0.3500 0.4500 0.3500 (  4788 PWs)   bands (ev):

   -45.0361 -21.4530 -21.3762 -21.3760  -5.4480  -5.2909  -5.2806  -4.0241
    -3.9995  -3.7728  -3.7227  -3.6836   4.3975   6.1645   6.4152   6.7999
     7.3810   7.5192   8.2211  10.7876  10.8569  10.9222  14.9773  15.2349
    15.4041  17.5205

          k = 0.4500 0.3500 0.4500 (  4775 PWs)   bands (ev):

   -45.0358 -21.4379 -21.3898 -21.3897  -5.4941  -5.2537  -5.2415  -4.0032
    -3.9930  -3.6913  -3.6758  -3.6646   4.6364   6.1127   6.1308   6.7479
     7.1683   7.3922   7.6010  10.8690  10.8753  11.1621  15.2157  15.2804
    15.4635  17.9087

     the Fermi energy is    11.3723 ev

!    total energy              =    -364.94651609 Ry
     Harris-Foulkes estimate   =    -364.94651609 Ry
     estimated scf accuracy    <          2.0E-09 Ry

     The total energy is the sum of the following terms:

     one-electron contribution =     -75.57763233 Ry
     hartree contribution      =      68.73075999 Ry
     xc contribution           =     -86.00584055 Ry
     ewald contribution        =    -272.09950686 Ry
     smearing contrib. (-TS)   =       0.00570365 Ry

     convergence has been achieved in   8 iterations

     Forces acting on atoms (cartesian axes, Ry/au):

     atom    1 type  1   force =     0.00000000    0.01788874    0.00000000
     atom    2 type  2   force =     0.00000000   -0.03146740    0.00000000
     atom    3 type  3   force =     0.00000000    0.00235835    0.00000000
     atom    4 type  3   force =     0.00000000    0.00886197    0.00000000
     atom    5 type  3   force =     0.00000000    0.00235835    0.00000000

     Total force =     0.032861     Total SCF correction =     0.000029


     Computing stress (Cartesian axis) and pressure

          total   stress  (Ry/bohr**3)                   (kbar)     P=  116.00
   0.00073097   0.00000000   0.00000000        107.53      0.00      0.00
   0.00000000   0.00090371   0.00000000          0.00    132.94      0.00
   0.00000000   0.00000000   0.00073097          0.00      0.00    107.53


     number of scf cycles    =   2
     number of bfgs steps    =   1

     energy   old            =    -364.9426068882 Ry
     energy   new            =    -364.9465160933 Ry

     CASE: energy  _new < energy  _old

     new trust radius        =       0.0570273721 bohr
     new conv_thr            =       0.0000000031 Ry


ATOMIC_POSITIONS (crystal)
Pb       0.000000000   0.000000000   0.000000000    0   0   0
Ti       0.500000000   0.531717298   0.500000000
O        0.500000000   0.500465182   0.000000000
O        0.500000000   0.008167768   0.500000000
O        0.000000000   0.500465182   0.500000000



     Writing output data file PbTiO3.save/
     NEW-OLD atomic charge density approx. for the potential

     Check: negative core charge=   -0.000005

     total cpu time spent up to now is      786.2 secs

     Self-consistent Calculation

     iteration #  1     ecut=    80.00 Ry     beta= 0.70
     Davidson diagonalization with overlap
     ethr =  1.00E-06,  avg # of iterations =  5.1

     total cpu time spent up to now is      850.2 secs

     total energy              =    -364.94761377 Ry
     Harris-Foulkes estimate   =    -364.94824379 Ry
     estimated scf accuracy    <       0.00094748 Ry

     iteration #  2     ecut=    80.00 Ry     beta= 0.70
     Davidson diagonalization with overlap
     ethr =  2.15E-06,  avg # of iterations =  4.1

     total cpu time spent up to now is      890.3 secs

     total energy              =    -364.94754786 Ry
     Harris-Foulkes estimate   =    -364.94817997 Ry
     estimated scf accuracy    <       0.00131420 Ry

     iteration #  3     ecut=    80.00 Ry     beta= 0.70
     Davidson diagonalization with overlap
     ethr =  2.15E-06,  avg # of iterations =  3.7

     total cpu time spent up to now is      926.7 secs

     total energy              =    -364.94785780 Ry
     Harris-Foulkes estimate   =    -364.94799475 Ry
     estimated scf accuracy    <       0.00039198 Ry

     iteration #  4     ecut=    80.00 Ry     beta= 0.70
     Davidson diagonalization with overlap
     ethr =  8.91E-07,  avg # of iterations =  3.0

     total cpu time spent up to now is      956.7 secs

     total energy              =    -364.94791966 Ry
     Harris-Foulkes estimate   =    -364.94792136 Ry
     estimated scf accuracy    <       0.00000377 Ry

     iteration #  5     ecut=    80.00 Ry     beta= 0.70
     Davidson diagonalization with overlap
     ethr =  8.56E-09,  avg # of iterations =  3.6

     total cpu time spent up to now is      998.4 secs

     total energy              =    -364.94792228 Ry
     Harris-Foulkes estimate   =    -364.94792272 Ry
     estimated scf accuracy    <       0.00000089 Ry

     iteration #  6     ecut=    80.00 Ry     beta= 0.70
     Davidson diagonalization with overlap
     ethr =  2.02E-09,  avg # of iterations =  3.1

     total cpu time spent up to now is     1033.5 secs

     total energy              =    -364.94792242 Ry
     Harris-Foulkes estimate   =    -364.94792277 Ry
     estimated scf accuracy    <       0.00000105 Ry

     iteration #  7     ecut=    80.00 Ry     beta= 0.70
     Davidson diagonalization with overlap
     ethr =  2.02E-09,  avg # of iterations =  2.6

     total cpu time spent up to now is     1063.9 secs

     End of self-consistent calculation

          k = 0.0500 0.0500 0.0500 (  4830 PWs)   bands (ev):

   -45.0942 -21.4052 -21.3772 -21.3771  -6.6163  -5.4868  -5.4498  -4.0321
    -4.0258  -4.0254  -3.8831  -3.8797   5.4908   7.5366   7.5516   7.7478
     9.7837   9.7999   9.9575  10.2874  10.4052  10.4869  13.4249  13.6188
    13.6205  15.8508

          k = 0.0500 0.0500 0.1500 (  4808 PWs)   bands (ev):

   -45.0939 -21.4048 -21.3912 -21.3766  -6.5204  -5.4508  -5.4117  -4.0425
    -4.0356  -4.0249  -3.9194  -3.8730   5.1186   7.5877   7.6218   7.9958
     9.5539   9.6304   9.9533  10.1527  10.2477  10.4669  13.6205  13.7826
    13.8666  15.9197

          k = 0.0500 0.0500 0.2500 (  4801 PWs)   bands (ev):

   -45.0934 -21.4141 -21.4037 -21.3758  -6.3604  -5.3894  -5.3489  -4.0618
    -4.0502  -4.0237  -3.9812  -3.8626   4.6843   7.6108   7.7510   7.9497
     9.2885   9.3510   9.8965  10.0841  10.2870  10.5451  13.6229  14.2939
    14.3258  15.9178

          k = 0.0500 0.0500 0.3500 (  4799 PWs)   bands (ev):

   -45.0929 -21.4365 -21.4029 -21.3749  -6.1935  -5.3217  -5.2859  -4.0931
    -4.0632  -4.0376  -4.0225  -3.8543   4.3601   7.2226   7.9191   8.0538
     8.9563   9.0287   9.8272  10.1307  10.4009  10.9922  13.6235  14.7648
    14.7929  15.4632

          k = 0.0500 0.0500 0.4500 (  4812 PWs)   bands (ev):

   -45.0927 -21.4504 -21.4024 -21.3744  -6.0861  -5.2748  -5.2483  -4.1282
    -4.0711  -4.0601  -4.0219  -3.8504   4.1983   6.8806   8.0713   8.2789
     8.6812   8.7407   9.7819  10.1739  10.4487  11.5060  13.6195  14.6792
    15.0467  15.0823

          k = 0.0500 0.1500 0.1500 (  4809 PWs)   bands (ev):

   -45.0936 -21.4190 -21.3907 -21.3761  -6.4217  -5.4161  -5.3818  -4.0510
    -4.0410  -4.0337  -3.9124  -3.8897   4.8548   7.5369   7.6582   8.1950
     9.2488   9.4646   9.8797  10.0835  10.2163  10.4752  13.7792  13.9493
    14.1327  16.1443

          k = 0.0500 0.1500 0.2500 (  4797 PWs)   bands (ev):

   -45.0931 -21.4183 -21.4131 -21.3752  -6.2675  -5.3663  -5.3198  -4.0728
    -4.0518  -4.0331  -3.9434  -3.8803   4.5079   7.5007   7.7685   8.0835
     8.9905   9.2331   9.7030  10.0892  10.1393  10.6893  13.9422  14.2987
    14.5117  16.2114

          k = 0.0500 0.1500 0.3500 (  4805 PWs)   bands (ev):

   -45.0927 -21.4359 -21.4170 -21.3744  -6.1105  -5.3152  -5.2512  -4.0980
    -4.0614  -4.0325  -3.9749  -3.8718   4.2265   7.2050   7.8433   8.0824
     8.7057   9.0004   9.6939  10.0972  10.1399  11.0299  13.9370  14.7658
    14.9213  15.6330

          k = 0.0500 0.1500 0.4500 (  4812 PWs)   bands (ev):

   -45.0924 -21.4496 -21.4165 -21.3739  -6.0125  -5.2806  -5.2066  -4.1176
    -4.0699  -4.0321  -3.9866  -3.8706   4.0796   6.8882   7.9175   8.2535
     8.5415   8.7158   9.7638  10.0881  10.1620  11.3012  13.9225  15.0408
    15.1048  15.1847

          k = 0.0500 0.2500 0.2500 (  4800 PWs)   bands (ev):

   -45.0927 -21.4409 -21.4123 -21.3743  -6.1207  -5.3290  -5.2605  -4.0792
    -4.0546  -4.0430  -3.9089  -3.9006   4.2458   7.4038   7.8152   7.9562
     8.7781   8.8912   9.4507   9.9500  10.3594  10.8336  14.2767  14.4359
    14.8252  16.2273

          k = 0.0500 0.2500 0.3500 (  4807 PWs)   bands (ev):

   -45.0922 -21.4400 -21.4345 -21.3735  -5.9929  -5.2852  -5.1840  -4.0897
    -4.0607  -4.0451  -3.9207  -3.8772   4.0182   7.1865   7.6763   7.9788
     8.5249   8.8557   9.2900   9.8558  10.4845  10.9073  14.4080  14.7591
    15.1385  15.9250

          k = 0.0500 0.2500 0.4500 (  4798 PWs)   bands (ev):

   -45.0919 -21.4485 -21.4392 -21.3729  -5.9221  -5.2464  -5.1336  -4.0996
    -4.0683  -4.0465  -3.9113  -3.8744   3.8920   6.8994   7.7160   7.9215
     8.4965   8.7850   9.2391   9.8641  10.4967  10.9387  14.4004  15.0323
    15.3546  15.7289

          k = 0.0500 0.3500 0.3500 (  4803 PWs)   bands (ev):

   -45.0917 -21.4624 -21.4336 -21.3726  -5.9069  -5.2075  -5.1143  -4.0865
    -4.0641  -4.0495  -3.9403  -3.8167   3.8214   7.0925   7.3117   8.0069
     8.3629   8.7380   9.1746   9.6968  10.6229  10.8151  14.7314  14.8777
    15.3676  16.2245

          k = 0.0500 0.3500 0.4500 (  4794 PWs)   bands (ev):

   -45.0914 -21.4617 -21.4473 -21.3720  -5.8757  -5.1491  -5.0545  -4.0894
    -4.0670  -4.0545  -3.9488  -3.7787   3.7109   6.8875   7.2248   7.9860
     8.2650   8.8725   9.0360   9.6241  10.4296  10.9344  14.8627  15.0186
    15.5470  16.3218

          k = 0.0500 0.4500 0.4500 (  4782 PWs)   bands (ev):

   -45.0911 -21.4755 -21.4465 -21.3715  -5.8666  -5.0580  -5.0034  -4.0902
    -4.0658  -4.0579  -3.9717  -3.7223   3.6026   6.7562   7.0400   8.0410
     8.1060   8.8884   9.0577   9.4991  10.1301  11.1219  15.0062  15.1464
    15.6855  16.6880

          k = 0.1500 0.1500 0.1500 (  4818 PWs)   bands (ev):

   -45.0933 -21.4184 -21.3903 -21.3899  -6.3297  -5.3892  -5.3523  -4.0577
    -4.0547  -4.0323  -3.8995  -3.8964   4.6771   7.5189   7.5394   8.3422
     9.0777   9.1404   9.9720  10.1225  10.2028  10.3680  14.0353  14.1243
    14.1388  16.7026

          k = 0.1500 0.1500 0.2500 (  4805 PWs)   bands (ev):

   -45.0928 -21.4177 -21.4125 -21.3892  -6.1803  -5.3498  -5.2956  -4.0802
    -4.0541  -4.0284  -3.9189  -3.8798   4.4101   7.4516   7.5256   8.1393
     8.7947   8.9594   9.8350  10.1281  10.2387  10.5752  14.0927  14.4396
    14.5091  16.3564

          k = 0.1500 0.1500 0.3500 (  4805 PWs)   bands (ev):

   -45.0924 -21.4352 -21.4165 -21.3883  -6.0319  -5.3123  -5.2286  -4.0978
    -4.0463  -4.0208  -3.9460  -3.8714   4.1728   7.2006   7.5017   7.9424
     8.5836   9.0317   9.5132  10.2041  10.2610  10.8731  14.0281  14.8260
    14.9106  15.8088

          k = 0.1500 0.1500 0.4500 (  4807 PWs)   bands (ev):

   -45.0921 -21.4490 -21.4160 -21.3877  -5.9419  -5.2890  -5.1813  -4.1051
    -4.0409  -4.0104  -3.9667  -3.8722   4.0427   6.8958   7.4703   7.9948
     8.4927   9.0986   9.3104  10.2472  10.2582  11.0327  13.9629  15.0761
    15.1712  15.5529

          k = 0.1500 0.2500 0.2500 (  4811 PWs)   bands (ev):

   -45.0924 -21.4403 -21.4117 -21.3883  -6.0301  -5.3145  -5.2655  -4.0822
    -4.0626  -4.0148  -3.8863  -3.8813   4.2335   7.3161   7.4093   7.9395
     8.4219   8.7539   9.8933  10.0311  10.3940  10.6415  14.3302  14.5118
    14.7644  16.1153

          k = 0.1500 0.2500 0.3500 (  4800 PWs)   bands (ev):

   -45.0919 -21.4394 -21.4339 -21.3874  -5.9019  -5.2970  -5.1943  -4.0863
    -4.0526  -3.9997  -3.8917  -3.8601   4.0610   7.1488   7.3347   7.6112
     8.1695   8.8016   9.7191  10.0372  10.5073  10.6630  14.3458  14.7793
    15.0559  16.0723

          k = 0.1500 0.2500 0.4500 (  4793 PWs)   bands (ev):

   -45.0916 -21.4478 -21.4386 -21.3868  -5.8318  -5.2829  -5.1406  -4.0859
    -4.0438  -3.9910  -3.8864  -3.8598   3.9581   6.9006   7.2424   7.5573
     8.1167   8.9018   9.4990  10.1151  10.4850  10.6534  14.3192  15.0198
    15.2781  16.1356

          k = 0.1500 0.3500 0.3500 (  4792 PWs)   bands (ev):

   -45.0914 -21.4618 -21.4330 -21.3865  -5.8060  -5.2386  -5.1572  -4.0796
    -4.0424  -3.9802  -3.8975  -3.8003   3.9319   7.0367   7.2221   7.3396
     7.7539   8.7717   9.7606   9.9033  10.3305  10.7984  14.6174  14.8565
    15.2530  16.3833

          k = 0.1500 0.3500 0.4500 (  4792 PWs)   bands (ev):

   -45.0911 -21.4611 -21.4467 -21.3859  -5.7735  -5.2082  -5.1001  -4.0752
    -4.0249  -3.9754  -3.9059  -3.7625   3.8522   6.8800   7.1394   7.2386
[...]

   -45.1412 -21.4633 -21.4598 -21.4594  -5.8880  -5.2810  -5.2780  -4.0561
    -4.0560  -3.9704  -3.8466  -3.8454   4.2015   7.1344   7.1394   7.9143
     8.1284   8.1366  10.2178  10.2981  10.3128  10.5230  14.3439  14.6881
    14.6906  16.1170

          k = 0.2500 0.2500 0.3500 (  4799 PWs)   bands (ev):

   -45.1407 -21.4821 -21.4622 -21.4587  -5.7610  -5.2924  -5.2180  -4.0534
    -4.0352  -3.9290  -3.8280  -3.8243   4.1228   6.9081   7.0343   7.3700
     7.9872   8.1089   9.8875  10.3889  10.4055  10.6463  14.3520  14.8273
    15.0063  16.3483

          k = 0.2500 0.2500 0.4500 (  4793 PWs)   bands (ev):

   -45.1405 -21.4958 -21.4616 -21.4581  -5.6975  -5.3002  -5.1622  -4.0490
    -4.0220  -3.8840  -3.8342  -3.8137   4.0636   6.7651   6.8623   7.1683
     7.9535   8.1626   9.6214  10.3660  10.4357  10.7067  14.3924  15.0015
    15.2336  16.6633

          k = 0.2500 0.3500 0.3500 (  4801 PWs)   bands (ev):

   -45.1403 -21.4846 -21.4810 -21.4578  -5.6531  -5.2673  -5.2179  -4.0373
    -4.0138  -3.8795  -3.8068  -3.7628   4.1356   6.7237   6.7952   7.2063
     7.4552   8.0185   9.4484  10.4647  10.4963  10.8350  14.5605  14.9122
    15.1578  16.7084

          k = 0.2500 0.3500 0.4500 (  4785 PWs)   bands (ev):

   -45.1400 -21.4948 -21.4839 -21.4572  -5.6171  -5.2610  -5.1740  -4.0304
    -3.9950  -3.8363  -3.8061  -3.7252   4.1247   6.5851   6.7768   6.8722
     7.3709   8.0265   9.0603  10.4760  10.5121  10.9567  14.7253  15.0049
    15.3315  17.0989

          k = 0.2500 0.4500 0.4500 (  4788 PWs)   bands (ev):

   -45.1397 -21.4976 -21.4941 -21.4566  -5.6077  -5.1922  -5.1802  -4.0229
    -3.9714  -3.8059  -3.7947  -3.6672   4.1392   6.5902   6.6240   6.7701
     7.0377   8.0206   8.5932  10.5066  10.5153  11.1305  14.9804  15.0343
    15.4527  17.4588

          k = 0.3500 0.3500 0.3500 (  4803 PWs)   bands (ev):

   -45.1398 -21.4836 -21.4801 -21.4799  -5.5126  -5.2742  -5.2717  -4.0038
    -4.0034  -3.7970  -3.7265  -3.7252   4.3255   6.4236   6.4273   7.1243
     7.3996   7.4002   8.7422  10.7661  10.7715  10.8841  14.7349  15.1350
    15.1364  17.1210

          k = 0.3500 0.3500 0.4500 (  4788 PWs)   bands (ev):

   -45.1395 -21.4938 -21.4830 -21.4794  -5.4670  -5.3053  -5.2305  -3.9985
    -3.9826  -3.7363  -3.7097  -3.6772   4.4320   6.2154   6.3734   6.8306
     7.2911   7.3922   8.2191  10.8131  10.8700  10.9890  14.9432  15.1341
    15.3277  17.5410

          k = 0.3500 0.4500 0.4500 (  4775 PWs)   bands (ev):

   -45.1392 -21.4967 -21.4932 -21.4789  -5.4318  -5.2709  -5.2607  -3.9876
    -3.9674  -3.6793  -3.6680  -3.6244   4.6403   6.1274   6.1614   6.7129
     7.0310   7.3479   7.5859  10.9259  10.9327  11.1195  15.1541  15.2120
    15.4069  17.9401

          k = 0.4500 0.4500 0.4500 (  4764 PWs)   bands (ev):

   -45.1389 -21.4961 -21.4926 -21.4926  -5.3320  -5.3058  -5.3038  -3.9659
    -3.9655  -3.6046  -3.5940  -3.5930   5.1718   5.9127   5.9144   6.6081
     6.7372   7.0323   7.0362  11.1059  11.1092  11.1218  15.3348  15.3865
    15.3874  18.3296

          k =-0.0500 0.1500 0.0500 (  4808 PWs)   bands (ev):

   -45.1432 -21.4436 -21.4254 -21.4254  -6.5187  -5.4397  -5.4365  -4.0280
    -4.0251  -4.0159  -3.9095  -3.8657   5.1334   7.5891   7.6114   7.9965
     9.6221   9.6647   9.9868  10.1567  10.4190  10.4372  13.3928  13.7713
    13.7740  15.7840

          k =-0.0500 0.2500 0.0500 (  4801 PWs)   bands (ev):

   -45.1427 -21.4664 -21.4246 -21.4245  -6.3552  -5.3808  -5.3702  -4.0489
    -4.0383  -4.0147  -3.9713  -3.8547   4.6976   7.6170   7.7362   7.9305
     9.2842   9.3401   9.9303  10.1396  10.4307  10.5596  13.3949  14.2869
    14.2956  15.7842

          k =-0.0500 0.3500 0.0500 (  4799 PWs)   bands (ev):

   -45.1423 -21.4890 -21.4237 -21.4237  -6.1846  -5.3155  -5.3035  -4.0818
    -4.0501  -4.0271  -4.0135  -3.8456   4.3739   7.1985   7.8919   8.0212
     8.9558   8.9899   9.8622  10.2889  10.4713  11.0207  13.3958  14.7641
    14.7734  15.4963

          k =-0.0500 0.4500 0.0500 (  4812 PWs)   bands (ev):

   -45.1420 -21.5029 -21.4232 -21.4232  -6.0751  -5.2712  -5.2623  -4.1179
    -4.0568  -4.0499  -4.0128  -3.8412   4.2138   6.8306   8.0270   8.2234
     8.6922   8.7289   9.8190  10.3585  10.5039  11.5326  13.3934  14.7088
    15.0490  15.0565

          k = 0.1500 0.0500 0.1500 (  4809 PWs)   bands (ev):

   -45.1429 -21.4398 -21.4393 -21.4283  -6.4241  -5.4142  -5.3949  -4.0414
    -4.0270  -4.0230  -3.9047  -3.8796   4.8722   7.5379   7.6725   8.1988
     9.3062   9.4926   9.9240  10.1373  10.2343  10.4694  13.7387  13.7890
    14.0301  16.0707

          k =-0.0500 0.2500 0.1500 (  4797 PWs)   bands (ev):

   -45.1424 -21.4658 -21.4386 -21.4240  -6.2663  -5.3645  -5.3308  -4.0617
    -4.0372  -4.0240  -3.9342  -3.8722   4.5228   7.5000   7.7676   8.0847
     8.9667   9.2560   9.7101  10.1560  10.2198  10.6874  13.7527  14.2928
    14.4723  16.1298

          k = 0.2500 0.0500 0.1500 (  4797 PWs)   bands (ev):

   -45.1424 -21.4623 -21.4386 -21.4274  -6.2679  -5.3668  -5.3281  -4.0621
    -4.0371  -4.0236  -3.9348  -3.8714   4.5240   7.5025   7.7732   8.0832
     8.9691   9.2550   9.7124  10.1531  10.2197  10.6845  13.7613  14.2798
    14.4652  16.1387

          k =-0.0500 0.3500 0.1500 (  4805 PWs)   bands (ev):

   -45.1420 -21.4883 -21.4377 -21.4232  -6.1070  -5.3101  -5.2622  -4.0869
    -4.0462  -4.0235  -3.9667  -3.8632   4.2405   7.1802   7.8163   8.0753
     8.6835   9.0026   9.7250  10.1392  10.2461  11.0483  13.7464  14.7683
    14.8969  15.6714

          k = 0.3500 0.0500 0.1500 (  4805 PWs)   bands (ev):

   -45.1420 -21.4849 -21.4377 -21.4266  -6.1097  -5.3124  -5.2592  -4.0873
    -4.0457  -4.0231  -3.9675  -3.8625   4.2426   7.1841   7.8233   8.0813
     8.6803   9.0102   9.7077  10.1389  10.2501  11.0429  13.7551  14.7566
    14.8905  15.6725

          k =-0.0500 0.4500 0.1500 (  4812 PWs)   bands (ev):

   -45.1417 -21.5022 -21.4372 -21.4226  -6.0082  -5.2702  -5.2196  -4.1072
    -4.0538  -4.0230  -3.9792  -3.8612   4.0940   6.8375   7.8752   8.2370
     8.5207   8.7392   9.8092  10.1126  10.2751  11.3298  13.7321  15.0515
    15.1299  15.1681

          k = 0.4500 0.0500 0.1500 (  4812 PWs)   bands (ev):

   -45.1417 -21.4987 -21.4372 -21.4260  -6.0117  -5.2726  -5.2163  -4.1073
    -4.0532  -4.0226  -3.9802  -3.8606   4.0967   6.8422   7.8894   8.2433
     8.5228   8.7345   9.7859  10.1142  10.2803  11.3250  13.7405  15.0420
    15.1366  15.1551

          k = 0.2500 0.0500 0.2500 (  4800 PWs)   bands (ev):

   -45.1420 -21.4617 -21.4609 -21.4265  -6.1296  -5.3316  -5.2593  -4.0679
    -4.0413  -4.0312  -3.8982  -3.8946   4.2648   7.4251   7.8340   7.9531
     8.7677   8.8857   9.4875   9.9697  10.4082  10.8084  14.2302  14.3178
    14.7850  16.2277

          k =-0.0500 0.3500 0.2500 (  4807 PWs)   bands (ev):

   -45.1415 -21.4872 -21.4603 -21.4223  -5.9995  -5.2751  -5.1899  -4.0780
    -4.0461  -4.0353  -3.9115  -3.8707   4.0331   7.1679   7.6707   7.9664
     8.5433   8.8464   9.2937   9.9114  10.5046  10.9212  14.2577  14.7667
    15.1212  15.9503

          k = 0.3500 0.0500 0.2500 (  4807 PWs)   bands (ev):

   -45.1415 -21.4838 -21.4603 -21.4257  -6.0031  -5.2756  -5.1874  -4.0782
    -4.0456  -4.0346  -3.9112  -3.8717   4.0345   7.1762   7.6671   7.9719
     8.5388   8.8468   9.2950   9.9139  10.5109  10.9148  14.2593  14.7548
    15.1170  15.9513

          k =-0.0500 0.4500 0.2500 (  4798 PWs)   bands (ev):

   -45.1412 -21.5011 -21.4596 -21.4217  -5.9299  -5.2235  -5.1462  -4.0888
    -4.0522  -4.0376  -3.9021  -3.8683   3.9050   6.8493   7.7092   7.9002
     8.5462   8.7638   9.2363   9.9300  10.4933  10.9833  14.2484  15.0506
    15.3384  15.7675

          k = 0.4500 0.0500 0.2500 (  4798 PWs)   bands (ev):

   -45.1412 -21.4975 -21.4596 -21.4251  -5.9345  -5.2243  -5.1430  -4.0887
    -4.0514  -4.0370  -3.9015  -3.8700   3.9069   6.8572   7.7143   7.8965
     8.5499   8.7693   9.2227   9.9347  10.4978  10.9793  14.2500  15.0408
    15.3348  15.7644

          k = 0.3500 0.0500 0.3500 (  4803 PWs)   bands (ev):

   -45.1410 -21.4829 -21.4824 -21.4248  -5.9277  -5.1943  -5.1108  -4.0741
    -4.0506  -4.0367  -3.9298  -3.8136   3.8384   7.1929   7.1985   8.0228
     8.3601   8.7413   9.2011   9.6813  10.6403  10.8264  14.7077  14.7808
    15.3634  16.2141

          k =-0.0500 0.4500 0.3500 (  4794 PWs)   bands (ev):

   -45.1407 -21.4999 -21.4819 -21.4208  -5.8929  -5.1178  -5.0659  -4.0776
    -4.0517  -4.0449  -3.9389  -3.7744   3.7232   6.8513   7.2261   7.9621
     8.3150   8.8448   9.0639   9.6206  10.4211  10.9760  14.7360  15.0483
    15.5494  16.3502

          k = 0.4500 0.0500 0.3500 (  4794 PWs)   bands (ev):

   -45.1407 -21.4964 -21.4820 -21.4242  -5.8981  -5.1172  -5.0632  -4.0775
    -4.0508  -4.0437  -3.9386  -3.7765   3.7239   6.8618   7.2234   7.9608
     8.3084   8.8597   9.0587   9.6214  10.4222  10.9795  14.7385  15.0382
    15.5427  16.3463

          k = 0.4500 0.0500 0.4500 (  4782 PWs)   bands (ev):

   -45.1405 -21.4957 -21.4956 -21.4237  -5.8925  -5.0247  -5.0103  -4.0773
    -4.0497  -4.0463  -3.9620  -3.7211   3.6145   6.7760   7.0006   8.0511
     8.0895   8.9706   9.0531   9.4320  10.1344  11.1546  15.0297  15.0414
    15.6943  16.6667

          k =-0.1500 0.2500 0.1500 (  4805 PWs)   bands (ev):

   -45.1422 -21.4651 -21.4382 -21.4379  -6.1753  -5.3413  -5.3154  -4.0688
    -4.0435  -4.0173  -3.9077  -3.8714   4.4229   7.4649   7.5131   8.1494
     8.8113   8.9543   9.8040  10.2005  10.2715  10.5569  13.9915  14.4409
    14.4600  16.3690

          k =-0.1500 0.3500 0.1500 (  4805 PWs)   bands (ev):

   -45.1417 -21.4877 -21.4373 -21.4370  -6.0223  -5.3066  -5.2449  -4.0872
    -4.0363  -4.0087  -3.9342  -3.8625   4.1844   7.1810   7.4754   7.9498
     8.6035   9.0176   9.4964  10.2510  10.2980  10.8820  13.9242  14.8576
    14.8600  15.8258

          k =-0.1500 0.4500 0.1500 (  4807 PWs)   bands (ev):

   -45.1414 -21.5015 -21.4367 -21.4365  -5.9298  -5.2844  -5.1954  -4.0952
    -4.0315  -3.9973  -3.9547  -3.8629   4.0543   6.8452   7.4419   8.0102
     8.5100   9.0544   9.3362  10.2662  10.3124  11.0526  13.8558  15.1073
    15.1263  15.5813

          k = 0.2500 0.1500 0.2500 (  4811 PWs)   bands (ev):

   -45.1417 -21.4610 -21.4603 -21.4406  -6.0347  -5.3165  -5.2663  -4.0704
    -4.0508  -4.0033  -3.8752  -3.8744   4.2510   7.3344   7.4328   7.9418
     8.4151   8.7181   9.9831   9.9941  10.4390  10.5937  14.3127  14.4372
    14.7184  16.1144

          k =-0.1500 0.3500 0.2500 (  4800 PWs)   bands (ev):

   -45.1412 -21.4866 -21.4597 -21.4362  -5.9031  -5.2855  -5.2051  -4.0750
    -4.0422  -3.9860  -3.8812  -3.8535   4.0747   7.1435   7.3239   7.5981
     8.2110   8.7527   9.6761  10.1164  10.5197  10.6728  14.2598  14.7882
    15.0243  16.0764

          k = 0.3500 0.1500 0.2500 (  4800 PWs)   bands (ev):

   -45.1412 -21.4831 -21.4597 -21.4397  -5.9061  -5.2869  -5.2020  -4.0748
    -4.0419  -3.9857  -3.8809  -3.8543   4.0760   7.1499   7.3291   7.5936
     8.2064   8.7538   9.6850  10.1122  10.5225  10.6674  14.2634  14.7798
    15.0214  16.0766

          k =-0.1500 0.4500 0.2500 (  4793 PWs)   bands (ev):

   -45.1409 -21.5004 -21.4591 -21.4357  -5.8333  -5.2640  -5.1543  -4.0753
    -4.0344  -3.9739  -3.8777  -3.8532   3.9700   6.8529   7.2141   7.5761
     8.1735   8.8457   9.4591  10.1835  10.4699  10.7078  14.2192  15.0458
    15.2464  16.1656

          k = 0.4500 0.1500 0.2500 (  4793 PWs)   bands (ev):

   -45.1409 -21.4969 -21.4591 -21.4391  -5.8371  -5.2654  -5.1508  -4.0750
    -4.0341  -3.9735  -3.8769  -3.8547   3.9718   6.8602   7.2215   7.5707
     8.1671   8.8486   9.4657  10.1792  10.4680  10.7078  14.2225  15.0373
    15.2439  16.1639

          k = 0.3500 0.1500 0.3500 (  4792 PWs)   bands (ev):

   -45.1407 -21.4823 -21.4818 -21.4388  -5.8228  -5.2265  -5.1538  -4.0668
    -4.0307  -3.9672  -3.8857  -3.7971   3.9487   7.1073   7.1895   7.3066
     7.7464   8.7345   9.7903   9.9037  10.3207  10.8299  14.5980  14.7948
    15.2316  16.3753

          k =-0.1500 0.4500 0.3500 (  4792 PWs)   bands (ev):

   -45.1405 -21.4993 -21.4814 -21.4348  -5.7873  -5.1775  -5.1127  -4.0633
    -4.0156  -3.9579  -3.8972  -3.7580   3.8643   6.8461   7.1535   7.2130
     7.6453   8.7806   9.6075   9.9643  10.0782  10.9611  14.6657  15.0006
    15.4096  16.6746

          k = 0.4500 0.1500 0.3500 (  4792 PWs)   bands (ev):

   -45.1405 -21.4958 -21.4814 -21.4382  -5.7921  -5.1775  -5.1095  -4.0629
    -4.0152  -3.9573  -3.8961  -3.7602   3.8652   6.8587   7.1483   7.2128
     7.6429   8.7806   9.6143   9.9620  10.0750  10.9659  14.6677  14.9927
    15.4063  16.6734

          k = 0.4500 0.1500 0.4500 (  4775 PWs)   bands (ev):

   -45.1402 -21.4951 -21.4950 -21.4376  -5.7864  -5.0955  -5.0826  -4.0574
    -3.9855  -3.9455  -3.9246  -3.7036   3.7907   6.7689   6.9869   7.2733
     7.3368   8.7990   9.5039   9.8471   9.8780  11.1475  14.9573  14.9897
    15.5449  16.9985

          k =-0.2500 0.3500 0.2500 (  4799 PWs)   bands (ev):

   -45.1407 -21.4856 -21.4589 -21.4585  -5.7595  -5.2901  -5.2212  -4.0537
    -4.0352  -3.9291  -3.8284  -3.8237   4.1219   6.9026   7.0365   7.3666
     8.0107   8.0904   9.8815  10.3950  10.4070  10.6443  14.3484  14.8342
    15.0056  16.3482

          k =-0.2500 0.4500 0.2500 (  4793 PWs)   bands (ev):

   -45.1405 -21.4993 -21.4583 -21.4580  -5.6952  -5.2978  -5.1657  -4.0493
    -4.0221  -3.8840  -3.8347  -3.8129   4.0620   6.7584   6.8571   7.1733
     7.9734   8.1468   9.6169  10.3661  10.4425  10.7046  14.3879  15.0101
    15.2330  16.6642

          k = 0.3500 0.2500 0.3500 (  4801 PWs)   bands (ev):

   -45.1403 -21.4812 -21.4809 -21.4612  -5.6557  -5.2670  -5.2161  -4.0370
    -4.0139  -3.8788  -3.8058  -3.7646   4.1362   6.7263   6.7943   7.2053
     7.4596   8.0148   9.4494  10.4660  10.4923  10.8393  14.5599  14.9100
    15.1570  16.7086

          k =-0.2500 0.4500 0.3500 (  4785 PWs)   bands (ev):

   -45.1400 -21.4983 -21.4804 -21.4572  -5.6165  -5.2577  -5.1774  -4.0306
    -3.9951  -3.8361  -3.8062  -3.7251   4.1239   6.5770   6.7869   6.8659
     7.3775   8.0229   9.0605  10.4693  10.5195  10.9564  14.7207  15.0114
    15.3309  17.0991

          k = 0.4500 0.2500 0.3500 (  4785 PWs)   bands (ev):

   -45.1400 -21.4948 -21.4804 -21.4607  -5.6204  -5.2583  -5.1740  -4.0301
    -3.9952  -3.8349  -3.8053  -3.7274   4.1249   6.5837   6.7829   6.8679
     7.3772   8.0210   9.0612  10.4722  10.5141  10.9614  14.7224  15.0055
    15.3303  17.0991

          k = 0.4500 0.2500 0.4500 (  4788 PWs)   bands (ev):

   -45.1397 -21.4941 -21.4941 -21.4601  -5.6120  -5.1902  -5.1789  -4.0225
    -3.9716  -3.8042  -3.7937  -3.6698   4.1394   6.5942   6.6266   6.7669
     7.0407   8.0157   8.5948  10.5088  10.5118  11.1360  14.9796  15.0319
    15.4516  17.4586

          k =-0.3500 0.4500 0.3500 (  4788 PWs)   bands (ev):

   -45.1395 -21.4973 -21.4796 -21.4794  -5.4651  -5.3034  -5.2338  -3.9989
    -3.9824  -3.7381  -3.7087  -3.6763   4.4312   6.2118   6.3782   6.8259
     7.2975   7.3880   8.2198  10.8190  10.8655  10.9864  14.9418  15.1377
    15.3272  17.5407

          k = 0.4500 0.3500 0.4500 (  4775 PWs)   bands (ev):

   -45.1392 -21.4932 -21.4931 -21.4824  -5.4352  -5.2691  -5.2594  -3.9873
    -3.9677  -3.6775  -3.6671  -3.6270   4.6406   6.1282   6.1607   6.7145
     7.0348   7.3429   7.5862  10.9262  10.9286  11.1248  15.1538  15.2107
    15.4070  17.9401

     the Fermi energy is    11.3823 ev

!    total energy              =    -364.94972594 Ry
     Harris-Foulkes estimate   =    -364.94972594 Ry
     estimated scf accuracy    <          3.4E-11 Ry

     The total energy is the sum of the following terms:

     one-electron contribution =     -75.19158823 Ry
     hartree contribution      =      68.51642230 Ry
     xc contribution           =     -85.98970436 Ry
     ewald contribution        =    -272.29063458 Ry
     smearing contrib. (-TS)   =       0.00577892 Ry

     convergence has been achieved in   9 iterations

     Forces acting on atoms (cartesian axes, Ry/au):

     atom    1 type  1   force =     0.00000000   -0.00254053    0.00000000
     atom    2 type  2   force =     0.00000000    0.00037119    0.00000000
     atom    3 type  3   force =     0.00000000    0.00071279    0.00000000
     atom    4 type  3   force =     0.00000000    0.00074375    0.00000000
     atom    5 type  3   force =     0.00000000    0.00071279    0.00000000

     Total force =     0.001307     Total SCF correction =     0.000007


     Computing stress (Cartesian axis) and pressure

          total   stress  (Ry/bohr**3)                   (kbar)     P=  106.37
   0.00071891   0.00000000   0.00000000        105.76      0.00      0.00
   0.00000000   0.00073139   0.00000000          0.00    107.59      0.00
   0.00000000   0.00000000   0.00071891          0.00      0.00    105.76


     bfgs converged in   7 scf cycles and   6 bfgs steps
     (criteria: energy <  1.0E-04 Ry, force <  1.0E-03 Ry/Bohr)

     End of BFGS Geometry Optimization

     Final energy   =    -364.9497259431 Ry
Begin final coordinates

ATOMIC_POSITIONS (crystal)
Pb       0.000000000   0.000000000   0.000000000    0   0   0
Ti       0.500000000   0.496691141   0.500000000
O        0.500000000   0.506624129   0.000000000
O        0.500000000   0.005079884   0.500000000
O        0.000000000   0.506624129   0.500000000
End final coordinates



     Writing output data file PbTiO3.save/

     init_run     :     11.24s CPU     15.00s WALL (       1 calls)
     electrons    :   1627.20s CPU   2262.83s WALL (       7 calls)
     update_pot   :      2.23s CPU      2.38s WALL (       6 calls)
     forces       :     34.18s CPU     39.29s WALL (       7 calls)
     stress       :     89.23s CPU     97.25s WALL (       7 calls)

     Called by init_run:
     wfcinit      :      8.37s CPU     11.82s WALL (       1 calls)
     potinit      :      0.24s CPU      0.28s WALL (       1 calls)
     hinit0       :      1.99s CPU      2.00s WALL (       1 calls)

     Called by electrons:
     c_bands      :   1401.73s CPU   1910.29s WALL (      60 calls)
     sum_band     :    178.59s CPU    289.40s WALL (      60 calls)
     v_of_rho     :     13.54s CPU     14.68s WALL (      67 calls)
     newd         :     36.73s CPU     53.19s WALL (      67 calls)
     mix_rho      :      1.13s CPU      1.36s WALL (      60 calls)

     Called by c_bands:
     init_us_2    :     22.62s CPU     29.86s WALL (   10125 calls)
     cegterg      :   1334.58s CPU   1836.96s WALL (    4500 calls)

     Called by sum_band:
     sum_band:bec :      0.28s CPU      0.40s WALL (    4500 calls)
     addusdens    :     45.01s CPU     59.84s WALL (      60 calls)

     Called by *egterg:
     h_psi        :    734.08s CPU   1173.91s WALL (   19937 calls)
     s_psi        :    137.84s CPU    153.09s WALL (   19937 calls)
     g_psi        :     12.35s CPU     16.41s WALL (   15362 calls)
     cdiaghg      :     25.25s CPU     34.00s WALL (   19412 calls)

     Called by h_psi:
     h_psi:pot    :    731.18s CPU   1169.21s WALL (   19937 calls)
     h_psi:calbec :    140.19s CPU    156.34s WALL (   19937 calls)
     vloc_psi     :    450.64s CPU    859.53s WALL (   19937 calls)
     add_vuspsi   :    138.97s CPU    151.68s WALL (   19937 calls)

     General routines
     calbec       :    218.66s CPU    242.17s WALL (   27062 calls)
     fft          :      6.32s CPU      7.10s WALL (    1038 calls)
     ffts         :      0.16s CPU      0.23s WALL (     127 calls)
     fftw         :    463.43s CPU    893.52s WALL (  780618 calls)
     interpolate  :      0.53s CPU      0.67s WALL (      67 calls)

     Parallel routines

     PWSCF        :  29m28.57s CPU  40m22.86s WALL


   This run was terminated on:  11:36:22  14May2020            

=------------------------------------------------------------------------------=
   JOB DONE.
=------------------------------------------------------------------------------=
