
     Program PWSCF v.6.4.1 starts on 13May2020 at 18:40: 6 

     This program is part of the open-source Quantum ESPRESSO suite
     for quantum simulation of materials; please cite
         "P. Giannozzi et al., J. Phys.:Condens. Matter 21 395502 (2009);
         "P. Giannozzi et al., J. Phys.:Condens. Matter 29 465901 (2017);
          URL http://www.quantum-espresso.org", 
     in publications or presentations arising from this work. More details at
     http://www.quantum-espresso.org/quote

     Parallel version (MPI & OpenMP), running on       1 processor cores
     Number of MPI processes:                 1
     Threads/MPI process:                     1

     MPI processes distributed on     1 nodes
     Reading input from PTO_7.49_10_0.56.pw.in
Warning: card  &CELL ignored
Warning: card   CELL_DYNAMICS = 'BFGS', ignored
Warning: card  / ignored

     Current dimensions of program PWSCF are:
     Max number of different atomic species (ntypx) = 10
     Max number of k-points (npk) =  40000
     Max angular momentum in pseudopotentials (lmaxx) =  3
     Message from routine read_upf::
     Pseudo file Pb.pbe-dn-rrkjus_psl.0.2.2.UPF has been fixed on the fly.
To avoid this message in the future, permanently fix 
 your pseudo files following these instructions: 
https://gitlab.com/QEF/q-e/blob/master/upftools/how_to_fix_upf.md
     Message from routine read_upf::
     Pseudo file O.pbe-n-rrkjus_psl.0.1.UPF has been fixed on the fly.
To avoid this message in the future, permanently fix 
 your pseudo files following these instructions: 
https://gitlab.com/QEF/q-e/blob/master/upftools/how_to_fix_upf.md
               file Pb.pbe-dn-rrkjus_psl.0.2.2.UPF: wavefunction(s)  6S renormalized

     Subspace diagonalization in iterative solution of the eigenvalue problem:
     a serial algorithm will be used

 
     G-vector sticks info
     --------------------
     sticks:   dense  smooth     PW     G-vecs:    dense   smooth      PW
     Sum        3569    1433    421               160467    40651    6235
 


     bravais-lattice index     =            1
     lattice parameter (alat)  =       7.4900  a.u.
     unit-cell volume          =     420.1897 (a.u.)^3
     number of atoms/cell      =            5
     number of atomic types    =            3
     number of electrons       =        44.00
     number of Kohn-Sham states=           26
     kinetic-energy cutoff     =      80.0000  Ry
     charge density cutoff     =     800.0000  Ry
     convergence threshold     =      1.0E-08
     mixing beta               =       0.7000
     number of iterations used =            8  plain     mixing
     Exchange-correlation      = PBE ( 1  4  3  4 0 0)
     nstep                     =           50


     celldm(1)=   7.490000  celldm(2)=   0.000000  celldm(3)=   0.000000
     celldm(4)=   0.000000  celldm(5)=   0.000000  celldm(6)=   0.000000

     crystal axes: (cart. coord. in units of alat)
               a(1) = (   1.000000   0.000000   0.000000 )  
               a(2) = (   0.000000   1.000000   0.000000 )  
               a(3) = (   0.000000   0.000000   1.000000 )  

     reciprocal axes: (cart. coord. in units 2 pi/alat)
               b(1) = (  1.000000  0.000000  0.000000 )  
               b(2) = (  0.000000  1.000000  0.000000 )  
               b(3) = (  0.000000  0.000000  1.000000 )  


     PseudoPot. # 1 for Pb read from file:
     ./Pb.pbe-dn-rrkjus_psl.0.2.2.UPF
     MD5 check sum: 7afc420059c37d6888fc09c0f121e83f
     Pseudo is Ultrasoft + core correction, Zval = 14.0
     Generated using "atomic" code by A. Dal Corso v.5.0.2 svn rev. 9415
     Using radial grid of 1281 points,  6 beta functions with: 
                l(1) =   0
                l(2) =   0
                l(3) =   1
                l(4) =   1
                l(5) =   2
                l(6) =   2
     Q(r) pseudized with 0 coefficients 


     PseudoPot. # 2 for Ti read from file:
     ./Ti.pbe-sp-van_ak.UPF
     MD5 check sum: 8e4df49b7f0d34bbd5052bf3f5ea0213
     Pseudo is Ultrasoft, Zval = 12.0
     Generated by new atomic code, or converted to UPF format
     Using radial grid of  851 points,  6 beta functions with: 
                l(1) =   0
                l(2) =   0
                l(3) =   1
                l(4) =   1
                l(5) =   2
                l(6) =   2
     Q(r) pseudized with  8 coefficients,  rinner =    1.000   1.000   1.000
                                                       1.000   1.000

     PseudoPot. # 3 for O  read from file:
     ./O.pbe-n-rrkjus_psl.0.1.UPF
     MD5 check sum: e057bbcf3229fb5d8c36c0c92f9568b4
     Pseudo is Ultrasoft + core correction, Zval =  6.0
     Generated using "atomic" code by A. Dal Corso v.5.0.2 svn rev. 9415
     Using radial grid of 1095 points,  4 beta functions with: 
                l(1) =   0
                l(2) =   0
                l(3) =   1
                l(4) =   1
     Q(r) pseudized with 0 coefficients 


     atomic species   valence    mass     pseudopotential
        Pb            14.00   207.20000     Pb( 1.00)
        Ti            12.00    47.87000     Ti( 1.00)
        O              6.00    16.00000     O ( 1.00)

      8 Sym. Ops. (no inversion) found



   Cartesian axes

     site n.     atom                  positions (alat units)
         1           Pb  tau(   1) = (   0.0000000   0.0000000   0.0000000  )
         2           Ti  tau(   2) = (   0.5000000   0.5600000   0.5000000  )
         3           O   tau(   3) = (   0.5000000   0.5000000   0.0000000  )
         4           O   tau(   4) = (   0.5000000   0.0000000   0.5000000  )
         5           O   tau(   5) = (   0.0000000   0.5000000   0.5000000  )

     number of k points=    75  Marzari-Vanderbilt smearing, width (Ry)=  0.0250
                       cart. coord. in units 2pi/alat
        k(    1) = (   0.0500000   0.0500000   0.0500000), wk =   0.0160000
        k(    2) = (   0.0500000   0.0500000   0.1500000), wk =   0.0320000
        k(    3) = (   0.0500000   0.0500000   0.2500000), wk =   0.0320000
        k(    4) = (   0.0500000   0.0500000   0.3500000), wk =   0.0320000
        k(    5) = (   0.0500000   0.0500000   0.4500000), wk =   0.0320000
        k(    6) = (   0.0500000   0.1500000   0.1500000), wk =   0.0320000
        k(    7) = (   0.0500000   0.1500000   0.2500000), wk =   0.0320000
        k(    8) = (   0.0500000   0.1500000   0.3500000), wk =   0.0320000
        k(    9) = (   0.0500000   0.1500000   0.4500000), wk =   0.0320000
        k(   10) = (   0.0500000   0.2500000   0.2500000), wk =   0.0320000
        k(   11) = (   0.0500000   0.2500000   0.3500000), wk =   0.0320000
        k(   12) = (   0.0500000   0.2500000   0.4500000), wk =   0.0320000
        k(   13) = (   0.0500000   0.3500000   0.3500000), wk =   0.0320000
        k(   14) = (   0.0500000   0.3500000   0.4500000), wk =   0.0320000
        k(   15) = (   0.0500000   0.4500000   0.4500000), wk =   0.0320000
        k(   16) = (   0.1500000   0.1500000   0.1500000), wk =   0.0160000
        k(   17) = (   0.1500000   0.1500000   0.2500000), wk =   0.0320000
        k(   18) = (   0.1500000   0.1500000   0.3500000), wk =   0.0320000
        k(   19) = (   0.1500000   0.1500000   0.4500000), wk =   0.0320000
        k(   20) = (   0.1500000   0.2500000   0.2500000), wk =   0.0320000
        k(   21) = (   0.1500000   0.2500000   0.3500000), wk =   0.0320000
        k(   22) = (   0.1500000   0.2500000   0.4500000), wk =   0.0320000
        k(   23) = (   0.1500000   0.3500000   0.3500000), wk =   0.0320000
        k(   24) = (   0.1500000   0.3500000   0.4500000), wk =   0.0320000
        k(   25) = (   0.1500000   0.4500000   0.4500000), wk =   0.0320000
        k(   26) = (   0.2500000   0.2500000   0.2500000), wk =   0.0160000
        k(   27) = (   0.2500000   0.2500000   0.3500000), wk =   0.0320000
        k(   28) = (   0.2500000   0.2500000   0.4500000), wk =   0.0320000
        k(   29) = (   0.2500000   0.3500000   0.3500000), wk =   0.0320000
        k(   30) = (   0.2500000   0.3500000   0.4500000), wk =   0.0320000
        k(   31) = (   0.2500000   0.4500000   0.4500000), wk =   0.0320000
        k(   32) = (   0.3500000   0.3500000   0.3500000), wk =   0.0160000
        k(   33) = (   0.3500000   0.3500000   0.4500000), wk =   0.0320000
        k(   34) = (   0.3500000   0.4500000   0.4500000), wk =   0.0320000
        k(   35) = (   0.4500000   0.4500000   0.4500000), wk =   0.0160000
        k(   36) = (  -0.0500000   0.1500000   0.0500000), wk =   0.0160000
        k(   37) = (  -0.0500000   0.2500000   0.0500000), wk =   0.0160000
        k(   38) = (  -0.0500000   0.3500000   0.0500000), wk =   0.0160000
        k(   39) = (  -0.0500000   0.4500000   0.0500000), wk =   0.0160000
        k(   40) = (   0.1500000   0.0500000   0.1500000), wk =   0.0160000
        k(   41) = (  -0.0500000   0.2500000   0.1500000), wk =   0.0320000
        k(   42) = (   0.2500000   0.0500000   0.1500000), wk =   0.0320000
        k(   43) = (  -0.0500000   0.3500000   0.1500000), wk =   0.0320000
        k(   44) = (   0.3500000   0.0500000   0.1500000), wk =   0.0320000
        k(   45) = (  -0.0500000   0.4500000   0.1500000), wk =   0.0320000
        k(   46) = (   0.4500000   0.0500000   0.1500000), wk =   0.0320000
        k(   47) = (   0.2500000   0.0500000   0.2500000), wk =   0.0160000
        k(   48) = (  -0.0500000   0.3500000   0.2500000), wk =   0.0320000
        k(   49) = (   0.3500000   0.0500000   0.2500000), wk =   0.0320000
        k(   50) = (  -0.0500000   0.4500000   0.2500000), wk =   0.0320000
        k(   51) = (   0.4500000   0.0500000   0.2500000), wk =   0.0320000
        k(   52) = (   0.3500000   0.0500000   0.3500000), wk =   0.0160000
        k(   53) = (  -0.0500000   0.4500000   0.3500000), wk =   0.0320000
        k(   54) = (   0.4500000   0.0500000   0.3500000), wk =   0.0320000
        k(   55) = (   0.4500000   0.0500000   0.4500000), wk =   0.0160000
        k(   56) = (  -0.1500000   0.2500000   0.1500000), wk =   0.0160000
        k(   57) = (  -0.1500000   0.3500000   0.1500000), wk =   0.0160000
        k(   58) = (  -0.1500000   0.4500000   0.1500000), wk =   0.0160000
        k(   59) = (   0.2500000   0.1500000   0.2500000), wk =   0.0160000
        k(   60) = (  -0.1500000   0.3500000   0.2500000), wk =   0.0320000
        k(   61) = (   0.3500000   0.1500000   0.2500000), wk =   0.0320000
        k(   62) = (  -0.1500000   0.4500000   0.2500000), wk =   0.0320000
        k(   63) = (   0.4500000   0.1500000   0.2500000), wk =   0.0320000
        k(   64) = (   0.3500000   0.1500000   0.3500000), wk =   0.0160000
        k(   65) = (  -0.1500000   0.4500000   0.3500000), wk =   0.0320000
        k(   66) = (   0.4500000   0.1500000   0.3500000), wk =   0.0320000
        k(   67) = (   0.4500000   0.1500000   0.4500000), wk =   0.0160000
        k(   68) = (  -0.2500000   0.3500000   0.2500000), wk =   0.0160000
        k(   69) = (  -0.2500000   0.4500000   0.2500000), wk =   0.0160000
        k(   70) = (   0.3500000   0.2500000   0.3500000), wk =   0.0160000
        k(   71) = (  -0.2500000   0.4500000   0.3500000), wk =   0.0320000
        k(   72) = (   0.4500000   0.2500000   0.3500000), wk =   0.0320000
        k(   73) = (   0.4500000   0.2500000   0.4500000), wk =   0.0160000
        k(   74) = (  -0.3500000   0.4500000   0.3500000), wk =   0.0160000
        k(   75) = (   0.4500000   0.3500000   0.4500000), wk =   0.0160000

     Dense  grid:   160467 G-vectors     FFT dimensions: (  72,  72,  72)

     Smooth grid:    40651 G-vectors     FFT dimensions: (  45,  45,  45)

     Estimated max dynamical RAM per process >     759.22 MB

     Check: negative core charge=   -0.000006

     Initial potential from superposition of free atoms

     starting charge   42.99760, renormalised to   44.00000
     Starting wfcs are   31 randomized atomic wfcs

     total cpu time spent up to now is       11.8 secs

     Self-consistent Calculation

     iteration #  1     ecut=    80.00 Ry     beta= 0.70
     Davidson diagonalization with overlap
     ethr =  1.00E-02,  avg # of iterations =  2.0

     total cpu time spent up to now is       31.8 secs

     total energy              =    -364.41058493 Ry
     Harris-Foulkes estimate   =    -365.28424887 Ry
     estimated scf accuracy    <       1.09821266 Ry

     iteration #  2     ecut=    80.00 Ry     beta= 0.70
     Davidson diagonalization with overlap
     ethr =  2.50E-03,  avg # of iterations =  4.1

     total cpu time spent up to now is       59.2 secs

     total energy              =    -363.57450454 Ry
     Harris-Foulkes estimate   =    -365.67596905 Ry
     estimated scf accuracy    <       7.17203707 Ry

     iteration #  3     ecut=    80.00 Ry     beta= 0.70
     Davidson diagonalization with overlap
     ethr =  2.50E-03,  avg # of iterations =  4.6

     total cpu time spent up to now is       86.4 secs

     total energy              =    -364.92241358 Ry
     Harris-Foulkes estimate   =    -365.08316435 Ry
     estimated scf accuracy    <       0.43775314 Ry

     iteration #  4     ecut=    80.00 Ry     beta= 0.70
     Davidson diagonalization with overlap
     ethr =  9.95E-04,  avg # of iterations =  3.5

     total cpu time spent up to now is      106.4 secs

     total energy              =    -364.91358607 Ry
     Harris-Foulkes estimate   =    -364.95547620 Ry
     estimated scf accuracy    <       0.13762487 Ry

     iteration #  5     ecut=    80.00 Ry     beta= 0.70
     Davidson diagonalization with overlap
     ethr =  3.13E-04,  avg # of iterations =  4.3

     total cpu time spent up to now is      131.0 secs

     total energy              =    -364.94868473 Ry
     Harris-Foulkes estimate   =    -364.94918123 Ry
     estimated scf accuracy    <       0.00269395 Ry

     iteration #  6     ecut=    80.00 Ry     beta= 0.70
     Davidson diagonalization with overlap
     ethr =  6.12E-06,  avg # of iterations =  4.0

     total cpu time spent up to now is      156.6 secs

     total energy              =    -364.94894449 Ry
     Harris-Foulkes estimate   =    -364.94968063 Ry
     estimated scf accuracy    <       0.00347352 Ry

     iteration #  7     ecut=    80.00 Ry     beta= 0.70
     Davidson diagonalization with overlap
     ethr =  6.12E-06,  avg # of iterations =  2.3

     total cpu time spent up to now is      175.7 secs

     total energy              =    -364.94886014 Ry
     Harris-Foulkes estimate   =    -364.94919284 Ry
     estimated scf accuracy    <       0.00082345 Ry

     iteration #  8     ecut=    80.00 Ry     beta= 0.70
     Davidson diagonalization with overlap
     ethr =  1.87E-06,  avg # of iterations =  3.8

     total cpu time spent up to now is      197.9 secs

     total energy              =    -364.94907085 Ry
     Harris-Foulkes estimate   =    -364.94908333 Ry
     estimated scf accuracy    <       0.00006912 Ry

     iteration #  9     ecut=    80.00 Ry     beta= 0.70
     Davidson diagonalization with overlap
     ethr =  1.57E-07,  avg # of iterations =  2.0

     total cpu time spent up to now is      217.9 secs

     total energy              =    -364.94906888 Ry
     Harris-Foulkes estimate   =    -364.94907729 Ry
     estimated scf accuracy    <       0.00002715 Ry

     iteration # 10     ecut=    80.00 Ry     beta= 0.70
     Davidson diagonalization with overlap
     ethr =  6.17E-08,  avg # of iterations =  2.9

     total cpu time spent up to now is      238.1 secs

     total energy              =    -364.94907320 Ry
     Harris-Foulkes estimate   =    -364.94907342 Ry
     estimated scf accuracy    <       0.00000044 Ry

     iteration # 11     ecut=    80.00 Ry     beta= 0.70
     Davidson diagonalization with overlap
     ethr =  1.01E-09,  avg # of iterations =  3.4

     total cpu time spent up to now is      265.6 secs

     total energy              =    -364.94907346 Ry
     Harris-Foulkes estimate   =    -364.94907348 Ry
     estimated scf accuracy    <       0.00000003 Ry

     iteration # 12     ecut=    80.00 Ry     beta= 0.70
     Davidson diagonalization with overlap
     ethr =  7.70E-11,  avg # of iterations =  3.0

     total cpu time spent up to now is      289.3 secs

     total energy              =    -364.94907346 Ry
     Harris-Foulkes estimate   =    -364.94907347 Ry
     estimated scf accuracy    <       0.00000001 Ry

     iteration # 13     ecut=    80.00 Ry     beta= 0.70
     Davidson diagonalization with overlap
     ethr =  2.54E-11,  avg # of iterations =  2.7

     total cpu time spent up to now is      310.6 secs

     End of self-consistent calculation

          k = 0.0500 0.0500 0.0500 (  5047 PWs)   bands (ev):

   -45.9585 -22.3802 -22.2002 -22.2002  -7.2307  -6.2555  -6.0877  -5.0909
    -5.0627  -5.0624  -4.9268  -4.9008   4.4270   6.8004   6.8651   7.0320
     8.5367   8.5576   9.1374   9.1547   9.5023   9.5571  12.5893  13.2943
    13.3147  14.8416

          k = 0.0500 0.0500 0.1500 (  5074 PWs)   bands (ev):

   -45.9583 -22.3798 -22.2108 -22.1998  -7.1539  -6.2189  -6.0589  -5.0984
    -5.0706  -5.0621  -4.9556  -4.9019   4.1315   6.8605   6.9695   7.1932
     8.3556   8.5426   9.0381   9.1514   9.3497   9.5206  12.8995  13.2907
    13.3183  15.1043

          k = 0.0500 0.0500 0.2500 (  5093 PWs)   bands (ev):

   -45.9580 -22.3791 -22.2279 -22.1992  -7.0262  -6.1534  -6.0139  -5.1105
    -5.0841  -5.0613  -5.0117  -4.8990   3.7624   6.8983   7.0511   7.2348
     8.3256   8.4369   8.9187   9.0645   9.2447   9.5612  13.2986  13.3621
    13.5423  15.0712

          k = 0.0500 0.0500 0.3500 (  5090 PWs)   bands (ev):

   -45.9576 -22.3784 -22.2449 -22.1986  -6.8941  -6.0747  -5.9744  -5.1254
    -5.1031  -5.0664  -5.0605  -4.8974   3.4712   6.5851   7.2361   7.4006
     8.1466   8.2853   8.7972   8.9423   9.3035   9.9261  13.3060  13.7574
    13.9102  14.2130

          k = 0.0500 0.0500 0.4500 (  5073 PWs)   bands (ev):

   -45.9574 -22.3780 -22.2554 -22.1982  -6.8100  -6.0085  -5.9624  -5.1482
    -5.1196  -5.0863  -5.0600  -4.8976   3.3183   6.3329   7.4363   7.6409
     7.8833   8.0332   8.7914   8.8641   9.3524  10.3582  13.2442  13.5488
    13.9966  14.1867

          k = 0.0500 0.1500 0.1500 (  5079 PWs)   bands (ev):

   -45.9581 -22.3908 -22.2104 -22.1994  -7.0558  -6.2022  -6.0301  -5.0981
    -5.0823  -5.0690  -4.9457  -4.9252   3.9061   6.8183   6.9093   7.3603
     8.1868   8.3981   8.8821   9.1930   9.3507   9.6223  12.8986  13.4946
    13.5454  15.1635

          k = 0.0500 0.1500 0.2500 (  5077 PWs)   bands (ev):

   -45.9578 -22.3901 -22.2274 -22.1988  -6.9320  -6.1452  -5.9934  -5.1120
    -5.0953  -5.0685  -4.9772  -4.9152   3.6120   6.7879   7.0352   7.3011
     8.1190   8.2996   8.7530   9.0463   9.2336   9.7637  13.3355  13.5373
    13.7106  15.1097

          k = 0.0500 0.1500 0.3500 (  5080 PWs)   bands (ev):

   -45.9574 -22.3893 -22.2444 -22.1982  -6.8054  -6.0849  -5.9548  -5.1282
    -5.1083  -5.0681  -5.0023  -4.9129   3.3643   6.5583   7.1728   7.3349
     7.9270   8.2037   8.7139   8.9460   9.2037   9.9911  13.5134  13.7482
    14.0245  14.3873

          k = 0.0500 0.1500 0.4500 (  5079 PWs)   bands (ev):

   -45.9572 -22.3889 -22.2549 -22.1978  -6.7258  -6.0459  -5.9293  -5.1408
    -5.1194  -5.0679  -5.0097  -4.9167   3.2297   6.3308   7.2949   7.5016
     7.7353   8.0039   8.7001   9.0272   9.1604  10.1756  13.4725  13.9153
    13.9851  14.2697

          k = 0.0500 0.2500 0.2500 (  5076 PWs)   bands (ev):

   -45.9574 -22.4077 -22.2267 -22.1981  -6.7745  -6.1382  -5.9507  -5.1143
    -5.1031  -5.0763  -4.9549  -4.9257   3.3828   6.6108   7.0340   7.1984
     7.9167   8.0804   8.5399   9.0862   9.3838   9.9369  13.3246  13.8754
    13.9720  15.0143

          k = 0.0500 0.2500 0.3500 (  5080 PWs)   bands (ev):

   -45.9571 -22.4069 -22.2436 -22.1975  -6.6649  -6.1033  -5.9031  -5.1247
    -5.1073  -5.0776  -4.9637  -4.9032   3.1943   6.4799   6.9756   7.2307
     7.7171   8.0811   8.4758   8.8388   9.4725   9.9376  13.7026  13.8754
    14.1931  14.7070

          k = 0.0500 0.2500 0.4500 (  5084 PWs)   bands (ev):

   -45.9568 -22.4064 -22.2540 -22.1971  -6.6002  -6.0842  -5.8635  -5.1287
    -5.1174  -5.0786  -4.9562  -4.8991   3.0871   6.3071   6.9800   7.2821
     7.5540   8.1252   8.4512   8.7812   9.4877   9.8870  13.8388  13.9483
    14.3785  14.5175

          k = 0.0500 0.3500 0.3500 (  5079 PWs)   bands (ev):

   -45.9567 -22.4244 -22.2427 -22.1968  -6.5394  -6.0974  -5.8413  -5.1241
    -5.1110  -5.0805  -4.9876  -4.8421   3.0292   6.2338   6.7725   7.1734
     7.6676   7.9287   8.3658   8.8541   9.4646   9.9663  13.6839  14.2135
    14.3653  15.0584

          k = 0.0500 0.3500 0.4500 (  5079 PWs)   bands (ev):

   -45.9565 -22.4238 -22.2531 -22.1964  -6.5072  -6.0716  -5.7893  -5.1242
    -5.1159  -5.0829  -4.9949  -4.8068   2.9463   6.1644   6.6096   7.3027
     7.4194   8.1255   8.3155   8.6933   9.2907   9.9937  13.9017  14.2099
    14.5271  15.0739

          k = 0.0500 0.4500 0.4500 (  5100 PWs)   bands (ev):

   -45.9563 -22.4346 -22.2525 -22.1959  -6.4767  -6.0283  -5.7380  -5.1278
    -5.1162  -5.0827  -5.0199  -4.7537   2.8606   5.9418   6.5247   7.2137
     7.4944   8.0069   8.3878   8.6709   8.9784  10.1612  13.8728  14.4345
    14.6203  15.4608

          k = 0.1500 0.1500 0.1500 (  5095 PWs)   bands (ev):

   -45.9579 -22.3904 -22.2101 -22.2098  -6.9853  -6.1742  -6.0079  -5.1051
    -5.0879  -5.0695  -4.9461  -4.9235   3.7600   6.7621   6.8582   7.4567
     8.0708   8.2645   8.7807   9.2610   9.4765   9.4960  13.1147  13.4796
    13.5444  15.6253

          k = 0.1500 0.1500 0.2500 (  5084 PWs)   bands (ev):

   -45.9575 -22.3896 -22.2270 -22.2093  -6.8719  -6.1252  -5.9712  -5.1160
    -5.0913  -5.0670  -4.9622  -4.9152   3.5371   6.7245   6.8370   7.3089
     7.8974   8.1276   8.8382   9.2151   9.3479   9.6869  13.3896  13.5383
    13.7073  15.1234

          k = 0.1500 0.1500 0.3500 (  5082 PWs)   bands (ev):

   -45.9572 -22.3889 -22.2439 -22.2087  -6.7609  -6.0706  -5.9327  -5.1264
    -5.0841  -5.0638  -4.9844  -4.9130   3.3329   6.5511   6.8390   7.1778
     7.7376   8.1527   8.7280   9.1602   9.3466   9.8842  13.3725  13.7918
    14.0188  14.6260

          k = 0.1500 0.1500 0.4500 (  5084 PWs)   bands (ev):

   -45.9570 -22.3885 -22.2544 -22.2082  -6.6944  -6.0336  -5.9069  -5.1302
    -5.0764  -5.0622  -4.9982  -4.9177   3.2168   6.3352   6.8459   7.1937
     7.6673   8.2488   8.4985   9.2466   9.3145   9.9823  13.2995  13.9905
    14.2526  14.3872

          k = 0.1500 0.2500 0.2500 (  5081 PWs)   bands (ev):

   -45.9572 -22.4072 -22.2262 -22.2086  -6.7127  -6.1244  -5.9534  -5.1179
    -5.1033  -5.0538  -4.9374  -4.9075   3.3783   6.5381   6.6793   7.1404
     7.6860   7.9852   8.7204   9.3128   9.4417   9.7983  13.3432  13.7977
    13.9294  14.9591

          k = 0.1500 0.2500 0.3500 (  5080 PWs)   bands (ev):

   -45.9568 -22.4065 -22.2431 -22.2079  -6.6125  -6.1016  -5.9120  -5.1203
    -5.0909  -5.0479  -4.9377  -4.8874   3.2408   6.4398   6.6497   6.9175
     7.3656   8.0445   8.8517   9.0607   9.4899   9.7895  13.5346  13.8287
    14.1483  14.9176

          k = 0.1500 0.2500 0.4500 (  5077 PWs)   bands (ev):

   -45.9566 -22.4060 -22.2535 -22.2075  -6.5553  -6.0930  -5.8739  -5.1181
    -5.0782  -5.0513  -4.9284  -4.8857   3.1568   6.3010   6.6469   6.8033
     7.2520   8.1432   8.7645   9.0745   9.4228   9.7457  13.6132  13.9317
    14.3426  14.9200

          k = 0.1500 0.3500 0.3500 (  5081 PWs)   bands (ev):

   -45.9565 -22.4239 -22.2423 -22.2072  -6.4726  -6.1163  -5.8878  -5.1187
    -5.0860  -5.0249  -4.9448  -4.8264   3.1341   6.1871   6.5619   6.7002
     7.1321   8.0232   8.6607   9.1340   9.3935   9.8758  13.5980  14.0702
    14.3019  15.2348

          k = 0.1500 0.3500 0.4500 (  5079 PWs)   bands (ev):

   -45.9563 -22.4234 -22.2526 -22.2068  -6.4400  -6.1114  -5.8407  -5.1138
    -5.0635  -5.0364  -4.9434  -4.7913   3.0809   6.1351   6.5045   6.6549
     6.8712   8.1099   8.6861   8.9492   9.2005   9.9618  13.8604  14.0349
    14.4465  15.4160

          k = 0.1500 0.4500 0.4500 (  5073 PWs)   bands (ev):

   -45.9561 -22.4341 -22.2521 -22.2064  -6.3988  -6.0853  -5.8208  -5.1122
    -5.0492  -5.0161  -4.9664  -4.7367   3.0272   5.9121   6.4360   6.6177
     6.7997   8.1090   8.4154   8.8469   9.1784  10.1232  13.8827  14.2714
    14.5307  15.7519

          k = 0.2500 0.2500 0.2500 (  5070 PWs)   bands (ev):

   -45.9568 -22.4065 -22.2257 -22.2254  -6.6227  -6.0975  -5.9503  -5.1074
    -5.1013  -5.0244  -4.9157  -4.8804   3.3529   6.3391   6.4813   6.9559
     7.5005   7.6061   8.9016   9.5066   9.5377   9.6615  13.3304  13.8942
    13.9076  15.0062

          k = 0.2500 0.2500 0.3500 (  5072 PWs)   bands (ev):

   -45.9565 -22.4057 -22.2424 -22.2248  -6.5496  -6.0729  -5.9252  -5.1006
    -5.0838  -4.9911  -4.8979  -4.8617   3.3058   6.2328   6.3225   6.6716
     7.2131   7.5704   8.8559   9.4057   9.5280   9.8076  13.4322  13.9164
    14.1361  15.1993

          k = 0.2500 0.2500 0.4500 (  5073 PWs)   bands (ev):

   -45.9563 -22.4053 -22.2527 -22.2244  -6.5142  -6.0648  -5.8913  -5.0957
    -5.0709  -4.9620  -4.8868  -4.8600   3.2674   6.1749   6.2681   6.4204
     7.1262   7.6097   8.6754   9.4067   9.4775   9.8621  13.6048  13.9366
    14.3255  15.4089

          k = 0.2500 0.3500 0.3500 (  5057 PWs)   bands (ev):

   -45.9562 -22.4232 -22.2416 -22.2241  -6.3876  -6.1197  -5.9499  -5.0958
    -5.0649  -4.9544  -4.8668  -4.7963   3.3168   5.9542   6.1783   6.4353
     6.9494   7.4675   8.4100   9.4538   9.7380   9.8500  13.5733  14.0836
    14.2639  15.5305

          k = 0.2500 0.3500 0.4500 (  5063 PWs)   bands (ev):

   -45.9559 -22.4227 -22.2519 -22.2237  -6.3621  -6.1322  -5.9107  -5.0883
    -5.0466  -4.9356  -4.8504  -4.7622   3.3316   5.9530   6.0632   6.2686
     6.7293   7.5012   8.0754   9.4519   9.7308   9.9588  13.8558  14.0310
    14.4010  15.8419

          k = 0.2500 0.4500 0.4500 (  5070 PWs)   bands (ev):

   -45.9557 -22.4334 -22.2514 -22.2232  -6.2775  -6.1578  -5.9229  -5.0848
    -5.0286  -4.9173  -4.8304  -4.7049   3.3559   5.7496   6.0826   6.1457
     6.5777   7.4632   7.6175   9.4441   9.7840  10.0922  13.9655  14.2136
    14.4811  16.1681

          k = 0.3500 0.3500 0.3500 (  5055 PWs)   bands (ev):

   -45.9558 -22.4224 -22.2409 -22.2408  -6.3531  -6.0813  -5.9888  -5.0721
    -5.0507  -4.8853  -4.7960  -4.7585   3.5148   5.7047   5.8713   6.2840
     6.8908   6.9900   7.8037   9.7200   9.8342  10.0583  13.7501  14.2366
    14.2389  15.8875

          k = 0.3500 0.3500 0.4500 (  5056 PWs)   bands (ev):

   -45.9556 -22.4219 -22.2512 -22.2404  -6.3541  -6.0728  -5.9701  -5.0609
    -5.0400  -4.8391  -4.7624  -4.7283   3.6416   5.6376   5.6883   6.1475
     6.7134   6.9615   7.3298   9.7748   9.9099  10.1745  14.0053  14.1713
    14.3892  16.2483

          k = 0.3500 0.4500 0.4500 (  5051 PWs)   bands (ev):

   -45.9554 -22.4326 -22.2507 -22.2400  -6.2464  -6.1287  -6.0042  -5.0582
    -5.0235  -4.8154  -4.7116  -4.6666   3.8254   5.4438   5.6855   5.9743
     6.5197   6.7077   6.9388   9.8619  10.0707  10.1738  14.1529  14.3098
    14.4602  16.5972

          k = 0.4500 0.4500 0.4500 (  5034 PWs)   bands (ev):

   -45.9552 -22.4322 -22.2503 -22.2503  -6.2785  -6.0592  -6.0446  -5.0434
    -5.0192  -4.7548  -4.6451  -4.6385   4.3244   5.2779   5.4058   5.8972
     5.9504   6.5042   6.6903  10.0524  10.0672  10.3434  14.3373  14.4340
    14.4388  16.9437

          k =-0.0500 0.1500 0.0500 (  5074 PWs)   bands (ev):

   -45.9583 -22.3912 -22.1998 -22.1998  -7.1309  -6.2358  -6.0522  -5.0904
    -5.0718  -5.0691  -4.9378  -4.9231   4.1199   6.8325   6.8474   7.2045
     8.4000   8.4110   9.0215   9.1332   9.5547   9.5906  12.5911  13.5113
    13.5405  14.8455

          k =-0.0500 0.2500 0.0500 (  5093 PWs)   bands (ev):

   -45.9580 -22.4090 -22.1991 -22.1991  -6.9583  -6.2104  -5.9888  -5.0895
    -5.0892  -5.0788  -5.0010  -4.9188   3.7282   6.8033   6.8805   7.0919
     8.2173   8.2191   9.0804   9.2062   9.6460   9.6951  12.5938  13.8543
    13.8931  14.8531

          k =-0.0500 0.3500 0.0500 (  5090 PWs)   bands (ev):

   -45.9576 -22.4266 -22.1985 -22.1984  -6.7642  -6.2001  -5.9150  -5.1214
    -5.0887  -5.0871  -5.0598  -4.9171   3.4124   6.4486   6.9214   7.0729
     8.0522   8.0730   9.0193   9.4836   9.7029  10.0702  12.5953  14.1891
    14.2321  14.3548

          k =-0.0500 0.4500 0.0500 (  5073 PWs)   bands (ev):

   -45.9574 -22.4375 -22.1980 -22.1980  -6.6231  -6.2114  -5.8612  -5.1633
    -5.0918  -5.0879  -5.0823  -4.9175   3.2434   6.1545   6.9420   7.1095
     7.9568   7.9973   8.9799   9.5830   9.7395  10.5340  12.5933  13.6034
    14.3902  14.4529

          k = 0.1500 0.0500 0.1500 (  5079 PWs)   bands (ev):

   -45.9581 -22.3794 -22.2106 -22.2103  -7.0825  -6.1874  -6.0284  -5.1049
    -5.0710  -5.0687  -4.9582  -4.9159   3.9217   6.8110   7.0400   7.3306
     8.1871   8.4144   8.8666   9.2040   9.4575   9.4641  13.1201  13.2962
    13.3243  15.5261

          k =-0.0500 0.2500 0.1500 (  5077 PWs)   bands (ev):

   -45.9578 -22.4085 -22.2097 -22.1987  -6.8876  -6.1809  -5.9788  -5.1034
    -5.0966  -5.0768  -4.9656  -4.9329   3.5902   6.6890   6.9235   7.2701
     7.9824   8.2179   8.8465   9.2177   9.4290   9.8328  12.8951  13.8195
    13.8944  15.1629

          k = 0.2500 0.0500 0.1500 (  5077 PWs)   bands (ev):

   -45.9578 -22.3787 -22.2275 -22.2097  -6.9669  -6.1286  -5.9801  -5.1132
    -5.0810  -5.0687  -4.9896  -4.9184   3.6295   6.8177   7.0545   7.3095
     8.0495   8.1822   8.8707   9.1744   9.3964   9.6000  13.2752  13.4834
    13.5745  15.2866

          k =-0.0500 0.3500 0.1500 (  5080 PWs)   bands (ev):

   -45.9574 -22.4261 -22.2089 -22.1980  -6.7020  -6.1716  -5.9206  -5.1308
    -5.0962  -5.0828  -4.9966  -4.9307   3.3182   6.3799   6.8915   7.2192
     7.8318   8.0802   8.9650   9.2073   9.5013  10.1383  12.8856  14.1291
    14.2282  14.5457

          k = 0.3500 0.0500 0.1500 (  5080 PWs)   bands (ev):

   -45.9574 -22.3780 -22.2444 -22.2091  -6.8525  -6.0529  -5.9374  -5.1250
    -5.0871  -5.0682  -5.0320  -4.9167   3.3810   6.5889   7.0619   7.4124
     7.8838   8.1519   8.5994   9.1916   9.4003   9.9244  13.2443  13.8250
    13.9379  14.4562

          k =-0.0500 0.4500 0.1500 (  5079 PWs)   bands (ev):

   -45.9572 -22.4369 -22.2085 -22.1976  -6.5711  -6.1785  -5.8802  -5.1557
    -5.0956  -5.0881  -5.0066  -4.9345   3.1676   6.1092   6.8638   7.2562
     7.7449   8.0070   9.0686   9.1884   9.5443  10.3752  12.8707  13.9976
    14.3703  14.4542

          k = 0.4500 0.0500 0.1500 (  5079 PWs)   bands (ev):

   -45.9572 -22.3776 -22.2549 -22.2087  -6.7833  -5.9857  -5.9237  -5.1387
    -5.0892  -5.0679  -5.0550  -4.9181   3.2454   6.3406   7.1654   7.4642
     7.8754   8.0924   8.3748   9.1796   9.4291  10.2117  13.1649  13.9812
    14.0531  14.2016

          k = 0.2500 0.0500 0.2500 (  5076 PWs)   bands (ev):

   -45.9574 -22.3780 -22.2270 -22.2265  -6.8777  -6.0745  -5.9254  -5.1097
    -5.0827  -5.0750  -4.9671  -4.9469   3.4250   6.7727   6.9869   7.3076
     7.7036   7.9381   8.9973   9.0337   9.6167   9.6247  13.4194  13.5707
    13.7931  15.1080

          k =-0.0500 0.3500 0.2500 (  5080 PWs)   bands (ev):

   -45.9571 -22.4252 -22.2259 -22.1974  -6.6114  -6.1325  -5.8999  -5.1257
    -5.1067  -5.0807  -4.9676  -4.9057   3.1702   6.3000   6.9580   7.1368
     7.7463   8.0094   8.4902   9.1503   9.4365  10.0601  13.3056  14.1866
    14.2338  14.8412

          k = 0.3500 0.0500 0.2500 (  5080 PWs)   bands (ev):

   -45.9571 -22.3773 -22.2437 -22.2260  -6.7997  -5.9948  -5.8744  -5.1123
    -5.0847  -5.0757  -4.9789  -4.9460   3.2347   6.5914   6.8811   7.2514
     7.5809   7.9258   8.6798   9.1373   9.5815   9.8884  13.4310  13.8567
    14.0589  14.7736

          k =-0.0500 0.4500 0.2500 (  5084 PWs)   bands (ev):

   -45.9568 -22.4360 -22.2254 -22.1970  -6.5094  -6.1250  -5.8661  -5.1408
    -5.1065  -5.0862  -4.9682  -4.8966   3.0469   6.0413   6.8985   7.1404
     7.6631   7.9887   8.5351   9.1974   9.4099  10.1107  13.2918  14.3120
    14.4394  14.7584

          k = 0.4500 0.0500 0.2500 (  5084 PWs)   bands (ev):

   -45.9569 -22.3769 -22.2541 -22.2256  -6.7581  -5.9198  -5.8554  -5.1210
    -5.0860  -5.0791  -4.9733  -4.9521   3.1248   6.3426   6.9629   7.1042
     7.6199   8.0808   8.3426   9.2289   9.5131  10.0417  13.3969  14.0835
    14.2593  14.5582

          k = 0.3500 0.0500 0.3500 (  5079 PWs)   bands (ev):

   -45.9567 -22.3767 -22.2430 -22.2427  -6.7651  -5.9038  -5.8104  -5.1051
    -5.0900  -5.0729  -4.9913  -4.9167   3.0901   6.5035   6.6901   7.1411
     7.2690   8.0090   8.7241   8.8848   9.5555  10.0405  13.7165  13.9089
    14.2207  15.0300

          k =-0.0500 0.4500 0.3500 (  5079 PWs)   bands (ev):

   -45.9565 -22.4351 -22.2422 -22.1963  -6.4801  -6.0677  -5.8000  -5.1305
    -5.1132  -5.0839  -5.0006  -4.8050   2.9301   5.9823   6.7358   7.0969
     7.7005   7.8640   8.3504   8.8895   9.2758  10.0663  13.6682  14.4337
    14.4885  15.2964

          k = 0.4500 0.0500 0.3500 (  5079 PWs)   bands (ev):

   -45.9565 -22.3762 -22.2532 -22.2424  -6.7519  -5.8215  -5.7795  -5.1076
    -5.0880  -5.0804  -5.0035  -4.8892   3.0025   6.2869   6.7169   6.9832
     7.2291   8.1890   8.4709   8.9187   9.4010  10.1950  13.7848  14.0940
    14.3457  15.0978

          k = 0.4500 0.0500 0.4500 (  5100 PWs)   bands (ev):

   -45.9563 -22.3758 -22.2527 -22.2527  -6.7550  -5.7441  -5.7305  -5.1058
    -5.0853  -5.0796  -5.0354  -4.8445   2.9265   6.1612   6.6378   6.9820
     6.9985   8.3480   8.5443   8.6609   9.1938  10.3705  14.0705  14.1112
    14.3952  15.4115

          k =-0.1500 0.2500 0.1500 (  5084 PWs)   bands (ev):

   -45.9575 -22.4080 -22.2094 -22.2091  -6.8195  -6.1574  -5.9734  -5.1126
    -5.1038  -5.0642  -4.9399  -4.9340   3.5123   6.6703   6.6986   7.3256
     7.9510   8.0883   8.6692   9.3031   9.5446   9.7270  13.0799  13.7884
    13.8677  15.1618

          k =-0.1500 0.3500 0.1500 (  5082 PWs)   bands (ev):

   -45.9572 -22.4256 -22.2086 -22.2085  -6.6383  -6.1510  -5.9370  -5.1344
    -5.1011  -5.0494  -4.9612  -4.9319   3.2830   6.3851   6.5673   7.2368
     7.8823   8.0217   8.6076   9.3120   9.5917  10.0007  13.0160  14.1118
    14.1502  14.7079

          k =-0.1500 0.4500 0.1500 (  5084 PWs)   bands (ev):

   -45.9570 -22.4364 -22.2082 -22.2080  -6.5118  -6.1584  -5.9134  -5.1465
    -5.0992  -5.0322  -4.9769  -4.9386   3.1508   6.1124   6.5003   7.2708
     7.8565   7.9703   8.6160   9.3067   9.6216  10.1310  12.9630  14.3014
    14.3197  14.5319

          k = 0.2500 0.1500 0.2500 (  5081 PWs)   bands (ev):

   -45.9572 -22.3889 -22.2265 -22.2261  -6.7825  -6.0825  -5.9348  -5.1113
    -5.0967  -5.0534  -4.9457  -4.9171   3.4057   6.6057   6.7370   7.1342
     7.5817   7.9493   8.9566   9.2696   9.5293   9.6323  13.4283  13.6766
    13.8027  14.9677

          k =-0.1500 0.3500 0.2500 (  5080 PWs)   bands (ev):

   -45.9568 -22.4248 -22.2255 -22.2079  -6.5457  -6.1271  -5.9337  -5.1260
    -5.1010  -5.0305  -4.9400  -4.8897   3.2143   6.2796   6.5085   6.9653
     7.6049   7.9851   8.5346   9.3881   9.5189   9.8491  13.2772  14.0885
    14.1655  14.9690

          k = 0.3500 0.1500 0.2500 (  5080 PWs)   bands (ev):

   -45.9569 -22.3882 -22.2432 -22.2256  -6.7057  -6.0243  -5.8968  -5.1115
    -5.0887  -5.0322  -4.9453  -4.9177   3.2681   6.5011   6.6263   6.8643
     7.4228   7.9346   8.9058   9.2253   9.4717   9.8241  13.4183  13.8400
    14.0653  14.9227

          k =-0.1500 0.4500 0.2500 (  5077 PWs)   bands (ev):

   -45.9566 -22.4355 -22.2250 -22.2074  -6.4382  -6.1289  -5.9223  -5.1303
    -5.0974  -5.0073  -4.9514  -4.8806   3.1128   6.0478   6.3766   6.9590
     7.6077   8.0407   8.3921   9.4076   9.5261   9.8413  13.2650  14.2973
    14.3476  15.0446

          k = 0.4500 0.1500 0.2500 (  5077 PWs)   bands (ev):

   -45.9566 -22.3878 -22.2536 -22.2251  -6.6659  -5.9805  -5.8711  -5.1108
    -5.0813  -5.0112  -4.9497  -4.9243   3.1829   6.3307   6.5510   6.7886
     7.3982   7.9797   8.7612   9.2744   9.3722   9.9069  13.4219  13.9938
    14.2775  14.9270

          k = 0.3500 0.1500 0.3500 (  5081 PWs)   bands (ev):

   -45.9565 -22.3875 -22.2425 -22.2423  -6.6722  -5.9498  -5.8605  -5.0999
    -5.0831  -5.0058  -4.9314  -4.8997   3.1881   6.4432   6.4541   6.6352
     7.0732   7.9224   8.9283   9.1450   9.2930  10.0436  13.6010  13.9222
    14.1944  15.2051

          k =-0.1500 0.4500 0.3500 (  5079 PWs)   bands (ev):

   -45.9563 -22.4346 -22.2418 -22.2068  -6.4025  -6.1023  -5.8741  -5.1185
    -5.0791  -4.9968  -4.9674  -4.7886   3.0629   5.9561   6.4551   6.6494
     7.1278   8.0406   8.4842   9.0821   9.3143   9.9807  13.6345  14.2826
    14.4305  15.5237

          k = 0.4500 0.1500 0.3500 (  5079 PWs)   bands (ev):

   -45.9563 -22.3871 -22.2528 -22.2419  -6.6610  -5.8932  -5.8360  -5.0958
    -5.0714  -4.9884  -4.9426  -4.8747   3.1326   6.2698   6.4347   6.5161
     6.9614   7.9577   8.8021   9.0925   9.1860  10.1833  13.7414  14.0149
    14.3362  15.4177

          k = 0.4500 0.1500 0.4500 (  5073 PWs)   bands (ev):

   -45.9561 -22.3866 -22.2523 -22.2522  -6.6664  -5.8269  -5.8145  -5.0903
    -5.0519  -4.9739  -4.9617  -4.8308   3.0936   6.1470   6.4189   6.4500
     6.7027   7.9844   8.6108   9.0675   9.0727  10.3651  13.9988  14.0596
    14.3932  15.7193

          k =-0.2500 0.3500 0.2500 (  5072 PWs)   bands (ev):

   -45.9565 -22.4240 -22.2249 -22.2246  -6.4534  -6.1169  -5.9661  -5.1104
    -5.0876  -4.9858  -4.8966  -4.8511   3.2748   6.0947   6.3056   6.6604
     7.4695   7.4784   8.6698   9.5355   9.6291   9.7114  13.3396  14.0564
    14.1653  15.2178

          k =-0.2500 0.4500 0.2500 (  5073 PWs)   bands (ev):

   -45.9563 -22.4347 -22.2244 -22.2242  -6.3394  -6.1354  -5.9760  -5.1097
    -5.0792  -4.9459  -4.8999  -4.8353   3.2157   5.9553   6.0883   6.6099
     7.4608   7.4855   8.4594   9.4704   9.6608   9.7559  13.4138  14.2063
    14.3587  15.4836

          k = 0.3500 0.2500 0.3500 (  5057 PWs)   bands (ev):

   -45.9562 -22.4050 -22.2417 -22.2415  -6.5174  -6.0165  -5.9295  -5.0769
    -5.0765  -4.9332  -4.8575  -4.8410   3.3522   6.0498   6.0878   6.4736
     7.0050   7.3378   8.4759   9.5034   9.5669  10.0497  13.5752  14.0314
    14.2100  15.5178

          k =-0.2500 0.4500 0.3500 (  5063 PWs)   bands (ev):

   -45.9559 -22.4339 -22.2411 -22.2236  -6.2840  -6.1470  -5.9655  -5.0930
    -5.0514  -4.9258  -4.8549  -4.7565   3.3080   5.7781   6.0964   6.2945
     6.8902   7.4463   8.0480   9.4378   9.7863   9.9326  13.7109  14.2114
    14.4054  15.8728

          k = 0.4500 0.2500 0.3500 (  5063 PWs)   bands (ev):

   -45.9559 -22.4046 -22.2520 -22.2412  -6.5107  -5.9895  -5.9090  -5.0717
    -5.0611  -4.8852  -4.8445  -4.8284   3.3686   5.9418   6.0361   6.2606
     6.8819   7.3299   8.1399   9.5407   9.5628  10.1766  13.8103  14.0262
    14.3503  15.8350

          k = 0.4500 0.2500 0.4500 (  5070 PWs)   bands (ev):

   -45.9557 -22.4041 -22.2515 -22.2515  -6.5207  -5.9297  -5.9178  -5.0632
    -5.0470  -4.8393  -4.8252  -4.8013   3.4210   5.8895   5.8993   6.1303
     6.6856   7.2918   7.7371   9.5763   9.5834  10.3565  14.0311  14.1064
    14.3966  16.1467

          k =-0.3500 0.4500 0.3500 (  5056 PWs)   bands (ev):

   -45.9556 -22.4331 -22.2405 -22.2403  -6.2306  -6.1380  -6.0219  -5.0695
    -5.0347  -4.8583  -4.7555  -4.7105   3.6054   5.5160   5.8923   6.0406
     6.7322   6.9874   7.3152   9.7974   9.9466  10.0668  13.9308  14.2767
    14.4076  16.2521

          k = 0.4500 0.3500 0.4500 (  5051 PWs)   bands (ev):

   -45.9554 -22.4215 -22.2508 -22.2507  -6.3722  -6.0128  -6.0002  -5.0446
    -5.0361  -4.7789  -4.7116  -4.7063   3.8791   5.4939   5.5072   6.0371
     6.6877   6.7210   6.7932   9.9077   9.9190  10.3482  14.1989  14.2779
    14.4040  16.5933

     the Fermi energy is    10.4171 ev

!    total energy              =    -364.94907347 Ry
     Harris-Foulkes estimate   =    -364.94907347 Ry
     estimated scf accuracy    <          1.8E-10 Ry

     The total energy is the sum of the following terms:

     one-electron contribution =     -84.23094813 Ry
     hartree contribution      =      71.54718801 Ry
     xc contribution           =     -85.85710793 Ry
     ewald contribution        =    -266.41421553 Ry
     smearing contrib. (-TS)   =       0.00601012 Ry

     convergence has been achieved in  13 iterations

     Forces acting on atoms (cartesian axes, Ry/au):

     atom    1 type  1   force =     0.00000000    0.02329144    0.00000000
     atom    2 type  2   force =     0.00000000   -0.07460315    0.00000000
     atom    3 type  3   force =     0.00000000    0.00645074    0.00000000
     atom    4 type  3   force =     0.00000000    0.03841024    0.00000000
     atom    5 type  3   force =     0.00000000    0.00645074    0.00000000

     Total force =     0.039479     Total SCF correction =     0.000011


     Computing stress (Cartesian axis) and pressure

          total   stress  (Ry/bohr**3)                   (kbar)     P=   33.18
   0.00005850   0.00000000   0.00000000          8.61      0.00      0.00
   0.00000000   0.00055974   0.00000000          0.00     82.34      0.00
   0.00000000   0.00000000   0.00005850          0.00      0.00      8.61


     BFGS Geometry Optimization

     number of scf cycles    =   1
     number of bfgs steps    =   0

     energy   new            =    -364.9490734662 Ry

     new trust radius        =       0.0384102351 bohr
     new conv_thr            =       0.0000000100 Ry


ATOMIC_POSITIONS (crystal)
Pb       0.000000000   0.000000000   0.000000000    0   0   0
Ti       0.500000000   0.560000000   0.500000000    0   0   0
O        0.500000000   0.500861246   0.000000000
O        0.500000000   0.005128202   0.500000000
O        0.000000000   0.500861246   0.500000000



     Writing output data file PbTiO3.save/
     NEW-OLD atomic charge density approx. for the potential

     Check: negative core charge=   -0.000006

     total cpu time spent up to now is      327.9 secs

     Self-consistent Calculation

     iteration #  1     ecut=    80.00 Ry     beta= 0.70
     Davidson diagonalization with overlap
     ethr =  1.00E-06,  avg # of iterations =  4.2

     total cpu time spent up to now is      359.1 secs

     total energy              =    -364.95011347 Ry
     Harris-Foulkes estimate   =    -364.95043947 Ry
     estimated scf accuracy    <       0.00046027 Ry

     iteration #  2     ecut=    80.00 Ry     beta= 0.70
     Davidson diagonalization with overlap
     ethr =  1.05E-06,  avg # of iterations =  4.2

     total cpu time spent up to now is      385.6 secs

     total energy              =    -364.94999654 Ry
     Harris-Foulkes estimate   =    -364.95059464 Ry
     estimated scf accuracy    <       0.00160387 Ry

     iteration #  3     ecut=    80.00 Ry     beta= 0.70
     Davidson diagonalization with overlap
     ethr =  1.05E-06,  avg # of iterations =  3.7

     total cpu time spent up to now is      409.8 secs

     total energy              =    -364.95029771 Ry
     Harris-Foulkes estimate   =    -364.95032513 Ry
     estimated scf accuracy    <       0.00007923 Ry

     iteration #  4     ecut=    80.00 Ry     beta= 0.70
     Davidson diagonalization with overlap
     ethr =  1.80E-07,  avg # of iterations =  2.7

     total cpu time spent up to now is      430.8 secs

     total energy              =    -364.95030995 Ry
     Harris-Foulkes estimate   =    -364.95031149 Ry
     estimated scf accuracy    <       0.00000310 Ry

     iteration #  5     ecut=    80.00 Ry     beta= 0.70
     Davidson diagonalization with overlap
     ethr =  7.04E-09,  avg # of iterations =  3.6

     total cpu time spent up to now is      453.9 secs

     total energy              =    -364.95031101 Ry
     Harris-Foulkes estimate   =    -364.95031104 Ry
     estimated scf accuracy    <       0.00000010 Ry

     iteration #  6     ecut=    80.00 Ry     beta= 0.70
     Davidson diagonalization with overlap
     ethr =  2.28E-10,  avg # of iterations =  3.0

     total cpu time spent up to now is      477.1 secs

     total energy              =    -364.95031104 Ry
     Harris-Foulkes estimate   =    -364.95031104 Ry
     estimated scf accuracy    <       0.00000001 Ry

     iteration #  7     ecut=    80.00 Ry     beta= 0.70
     Davidson diagonalization with overlap
     ethr =  2.91E-11,  avg # of iterations =  2.9

     total cpu time spent up to now is      499.6 secs

     End of self-consistent calculation

          k = 0.0500 0.0500 0.0500 (  5047 PWs)   bands (ev):

   -46.0054 -22.3920 -22.2479 -22.2479  -7.2308  -6.2481  -6.0980  -5.0816
    -5.0565  -5.0562  -4.9197  -4.8968   4.4340   6.8055   6.8624   7.0202
     8.6031   8.6293   9.1475   9.1801   9.4990   9.5441  12.5524  13.2023
    13.2200  14.7957

          k = 0.0500 0.0500 0.1500 (  5074 PWs)   bands (ev):

   -46.0052 -22.3916 -22.2585 -22.2475  -7.1528  -6.2125  -6.0693  -5.0891
    -5.0644  -5.0559  -4.9488  -4.8975   4.1390   6.8639   6.9565   7.1878
     8.4199   8.6085   9.0537   9.1476   9.3591   9.5180  12.8638  13.2071
    13.2279  15.0370

          k = 0.0500 0.0500 0.2500 (  5093 PWs)   bands (ev):

   -46.0048 -22.3909 -22.2755 -22.2469  -7.0229  -6.1491  -6.0244  -5.1014
    -5.0779  -5.0551  -5.0048  -4.8942   3.7706   6.8885   7.0508   7.2277
     8.3751   8.4777   8.9420   9.0613   9.2631   9.5662  13.2123  13.3194
    13.4760  15.0146

          k = 0.0500 0.0500 0.3500 (  5090 PWs)   bands (ev):

   -46.0045 -22.3902 -22.2924 -22.2463  -6.8878  -6.0734  -5.9847  -5.1173
    -5.0959  -5.0594  -5.0542  -4.8925   3.4802   6.5732   7.2382   7.3941
     8.1605   8.3012   8.8415   8.9525   9.3328   9.9337  13.2133  13.7233
    13.8518  14.2147

          k = 0.0500 0.0500 0.4500 (  5073 PWs)   bands (ev):

   -46.0043 -22.3898 -22.3029 -22.2459  -6.8015  -6.0101  -5.9721  -5.1415
    -5.1104  -5.0797  -5.0538  -4.8928   3.3280   6.3188   7.4415   7.6420
     7.8856   8.0237   8.8466   8.8822   9.3833  10.3697  13.1752  13.5295
    13.9636  14.1245

          k = 0.0500 0.1500 0.1500 (  5079 PWs)   bands (ev):

   -46.0049 -22.4025 -22.2580 -22.2471  -7.0559  -6.1946  -6.0408  -5.0889
    -5.0758  -5.0628  -4.9393  -4.9201   3.9153   6.8200   6.9146   7.3491
     8.2362   8.4511   8.9038   9.1948   9.3438   9.6185  12.8631  13.4168
    13.4588  15.1109

          k = 0.0500 0.1500 0.2500 (  5077 PWs)   bands (ev):

   -46.0046 -22.4018 -22.2750 -22.2465  -6.9301  -6.1392  -6.0041  -5.1034
    -5.0880  -5.0623  -4.9708  -4.9105   3.6213   6.7856   7.0399   7.2913
     8.1524   8.3335   8.7822   9.0479   9.2409   9.7637  13.2998  13.4508
    13.6450  15.0853

          k = 0.0500 0.1500 0.3500 (  5080 PWs)   bands (ev):

   -46.0043 -22.4011 -22.2919 -22.2459  -6.8010  -6.0810  -5.9654  -5.1205
    -5.0999  -5.0619  -4.9965  -4.9081   3.3739   6.5500   7.1728   7.3338
     7.9415   8.2197   8.7344   8.9779   9.2158   9.9953  13.4282  13.7140
    13.9668  14.3857

          k = 0.0500 0.1500 0.4500 (  5079 PWs)   bands (ev):

   -46.0040 -22.4007 -22.3023 -22.2455  -6.7195  -6.0436  -5.9397  -5.1339
    -5.1100  -5.0616  -5.0044  -4.9118   3.2398   6.3181   7.2969   7.5016
     7.7473   8.0004   8.7338   9.0555   9.1788  10.1842  13.3975  13.9038
    13.9558  14.2078

          k = 0.0500 0.2500 0.2500 (  5076 PWs)   bands (ev):

   -46.0043 -22.4194 -22.2743 -22.2458  -6.7760  -6.1289  -5.9616  -5.1063
    -5.0946  -5.0701  -4.9482  -4.9216   3.3942   6.6232   7.0399   7.1878
     7.9410   8.0992   8.5593   9.0804   9.4011   9.9303  13.2914  13.7956
    13.9088  15.0058

          k = 0.0500 0.2500 0.3500 (  5080 PWs)   bands (ev):

   -46.0039 -22.4186 -22.2911 -22.2452  -6.6649  -6.0944  -5.9137  -5.1166
    -5.0988  -5.0714  -4.9577  -4.8994   3.2050   6.4829   6.9654   7.2418
     7.7307   8.0882   8.4861   8.8529   9.5028   9.9301  13.6682  13.7991
    14.1378  14.6994

          k = 0.0500 0.2500 0.4500 (  5084 PWs)   bands (ev):

   -46.0037 -22.4181 -22.3014 -22.2448  -6.5997  -6.0746  -5.8744  -5.1213
    -5.1082  -5.0724  -4.9507  -4.8953   3.0976   6.2993   6.9787   7.2837
     7.5792   8.1182   8.4481   8.8121   9.5281   9.8795  13.7640  13.9167
    14.3263  14.5052

          k = 0.0500 0.3500 0.3500 (  5079 PWs)   bands (ev):

   -46.0036 -22.4361 -22.2902 -22.2445  -6.5466  -6.0806  -5.8527  -5.1158
    -5.1021  -5.0743  -4.9813  -4.8391   3.0412   6.2506   6.7524   7.1946
     7.6658   7.9367   8.3742   8.8534   9.4995   9.9580  13.6545  14.1386
    14.3111  15.0461

          k = 0.0500 0.3500 0.4500 (  5079 PWs)   bands (ev):

   -46.0033 -22.4355 -22.3006 -22.2441  -6.5146  -6.0528  -5.8011  -5.1161
    -5.1067  -5.0769  -4.9889  -4.8039   2.9573   6.1719   6.5994   7.3147
     7.4275   8.1211   8.3080   8.7097   9.3262   9.9961  13.8741  14.1347
    14.4707  15.0671

          k = 0.0500 0.4500 0.4500 (  5100 PWs)   bands (ev):

   -46.0031 -22.4462 -22.3000 -22.2437  -6.4880  -6.0048  -5.7508  -5.1195
    -5.1067  -5.0769  -5.0135  -4.7515   2.8718   5.9565   6.5100   7.2338
     7.4833   8.0106   8.3785   8.6771   9.0139  10.1700  13.8471  14.3602
    14.5653  15.4513

          k = 0.1500 0.1500 0.1500 (  5095 PWs)   bands (ev):

   -46.0047 -22.4021 -22.2578 -22.2575  -6.9840  -6.1678  -6.0187  -5.0963
    -5.0813  -5.0632  -4.9389  -4.9192   3.7686   6.7733   6.8537   7.4485
     8.1048   8.2980   8.8206   9.2622   9.4828   9.4836  13.0801  13.4067
    13.4638  15.5788

          k = 0.1500 0.1500 0.2500 (  5084 PWs)   bands (ev):

   -46.0044 -22.4014 -22.2746 -22.2570  -6.8679  -6.1213  -5.9820  -5.1082
    -5.0841  -5.0604  -4.9551  -4.9106   3.5452   6.7297   6.8395   7.3051
     7.9210   8.1396   8.8858   9.2090   9.3559   9.6854  13.3390  13.4804
    13.6431  15.1240

          k = 0.1500 0.1500 0.3500 (  5082 PWs)   bands (ev):

   -46.0040 -22.4007 -22.2914 -22.2563  -6.7535  -6.0699  -5.9433  -5.1193
    -5.0768  -5.0564  -4.9777  -4.9082   3.3410   6.5435   6.8491   7.1802
     7.7476   8.1704   8.7371   9.1844   9.3579   9.8841  13.3094  13.7559
    13.9617  14.6189

          k = 0.1500 0.1500 0.4500 (  5084 PWs)   bands (ev):

   -46.0038 -22.4002 -22.3018 -22.2559  -6.6846  -6.0352  -5.9174  -5.1234
    -5.0697  -5.0530  -4.9923  -4.9128   3.2251   6.3228   6.8544   7.2050
     7.6682   8.2737   8.4970   9.2693   9.3310   9.9828  13.2439  13.9592
    14.1961  14.3716

          k = 0.1500 0.2500 0.2500 (  5081 PWs)   bands (ev):

   -46.0040 -22.4190 -22.2738 -22.2563  -6.7119  -6.1170  -5.9642  -5.1101
    -5.0953  -5.0471  -4.9303  -4.9037   3.3888   6.5549   6.6885   7.1291
     7.6910   7.9889   8.7733   9.2997   9.4554   9.7901  13.3131  13.7292
    13.8674  14.9521

          k = 0.1500 0.2500 0.3500 (  5080 PWs)   bands (ev):

   -46.0037 -22.4182 -22.2906 -22.2556  -6.6091  -6.0963  -5.9225  -5.1127
    -5.0833  -5.0400  -4.9316  -4.8838   3.2505   6.4459   6.6599   6.9096
     7.3727   8.0437   8.8926   9.0562   9.5130   9.7790  13.4945  13.7769
    14.0920  14.9039

          k = 0.1500 0.2500 0.4500 (  5077 PWs)   bands (ev):

   -46.0035 -22.4177 -22.3010 -22.2552  -6.5503  -6.0883  -5.8845  -5.1108
    -5.0715  -5.0415  -4.9236  -4.8821   3.1663   6.2950   6.6500   6.8102
     7.2617   8.1431   8.7651   9.1009   9.4524   9.7368  13.5560  13.9007
    14.2864  14.9083

          k = 0.1500 0.3500 0.3500 (  5081 PWs)   bands (ev):

   -46.0033 -22.4356 -22.2898 -22.2549  -6.4769  -6.1024  -5.8982  -5.1105
    -5.0778  -5.0175  -4.9390  -4.8236   3.1457   6.2084   6.5715   6.6831
     7.1263   8.0166   8.7070   9.1299   9.3980   9.8809  13.5698  14.0079
    14.2477  15.2194

          k = 0.1500 0.3500 0.4500 (  5079 PWs)   bands (ev):

   -46.0031 -22.4351 -22.3001 -22.2545  -6.4445  -6.0961  -5.8513  -5.1057
    -5.0562  -5.0269  -4.9390  -4.7887   3.0916   6.1485   6.4988   6.6499
     6.8756   8.1005   8.7123   8.9694   9.1973   9.9734  13.8292  13.9762
    14.3934  15.4065

          k = 0.1500 0.4500 0.4500 (  5073 PWs)   bands (ev):

   -46.0029 -22.4458 -22.2996 -22.2541  -6.4095  -6.0632  -5.8315  -5.1038
    -5.0403  -5.0078  -4.9625  -4.7348   3.0385   5.9318   6.4285   6.6164
     6.7881   8.0982   8.4475   8.8712   9.1657  10.1390  13.8536  14.2086
    14.4805  15.7454

          k = 0.2500 0.2500 0.2500 (  5070 PWs)   bands (ev):

   -46.0037 -22.4182 -22.2733 -22.2730  -6.6175  -6.0941  -5.9609  -5.0995
    -5.0940  -5.0172  -4.9083  -4.8771   3.3619   6.3611   6.4856   6.9536
     7.4972   7.5973   8.9617   9.5102   9.5271   9.6569  13.3029  13.8345
    13.8509  14.9913

          k = 0.2500 0.2500 0.3500 (  5072 PWs)   bands (ev):

   -46.0033 -22.4175 -22.2899 -22.2724  -6.5396  -6.0740  -5.9353  -5.0930
    -5.0769  -4.9829  -4.8911  -4.8587   3.3135   6.2490   6.3327   6.6662
     7.2095   7.5623   8.8927   9.4120   9.5335   9.8022  13.4009  13.8666
    14.0834  15.1831

          k = 0.2500 0.2500 0.4500 (  5073 PWs)   bands (ev):

   -46.0031 -22.4170 -22.3002 -22.2720  -6.5015  -6.0680  -5.9012  -5.0883
    -5.0643  -4.9518  -4.8824  -4.8563   3.2745   6.1810   6.2778   6.4215
     7.1255   7.6038   8.6928   9.4250   9.4833   9.8578  13.5594  13.9044
    14.2737  15.3985

          k = 0.2500 0.3500 0.3500 (  5057 PWs)   bands (ev):

   -46.0030 -22.4349 -22.2891 -22.2717  -6.3837  -6.1139  -5.9594  -5.0874
    -5.0580  -4.9449  -4.8621  -4.7941   3.3273   5.9797   6.1815   6.4266
     6.9371   7.4538   8.4402   9.4715   9.7305   9.8621  13.5441  14.0299
    14.2110  15.5141

          k = 0.2500 0.3500 0.4500 (  5063 PWs)   bands (ev):

   -46.0028 -22.4344 -22.2994 -22.2713  -6.3561  -6.1278  -5.9201  -5.0801
    -5.0402  -4.9238  -4.8476  -4.7600   3.3410   5.9797   6.0627   6.2557
     6.7231   7.4877   8.0942   9.4774   9.7219   9.9735  13.8192  13.9849
    14.3507  15.8313

          k = 0.2500 0.4500 0.4500 (  5070 PWs)   bands (ev):

   -46.0026 -22.4450 -22.2989 -22.2708  -6.2853  -6.1391  -5.9320  -5.0764
    -5.0222  -4.9046  -4.8285  -4.7035   3.3670   5.7802   6.0719   6.1342
     6.5660   7.4525   7.6367   9.4707   9.7716  10.1132  13.9329  14.1595
    14.4329  16.1594

          k = 0.3500 0.3500 0.3500 (  5055 PWs)   bands (ev):

   -46.0027 -22.4341 -22.2885 -22.2883  -6.3393  -6.0848  -5.9977  -5.0635
    -5.0446  -4.8743  -4.7921  -4.7572   3.5232   5.7290   5.8731   6.2802
     6.8829   6.9682   7.8205   9.7429   9.8528  10.0478  13.7188  14.1859
    14.1908  15.8735

          k = 0.3500 0.3500 0.4500 (  5056 PWs)   bands (ev):

   -46.0024 -22.4336 -22.2987 -22.2880  -6.3371  -6.0791  -5.9787  -5.0525
    -5.0339  -4.8265  -4.7606  -4.7266   3.6480   5.6560   5.7000   6.1388
     6.7041   6.9448   7.3393   9.7986   9.9289  10.1639  13.9684  14.1279
    14.3423  16.2397

          k = 0.3500 0.4500 0.4500 (  5051 PWs)   bands (ev):

   -46.0022 -22.4443 -22.2982 -22.2875  -6.2293  -6.1346  -6.0124  -5.0495
    -5.0174  -4.8015  -4.7106  -4.6658   3.8357   5.4681   5.6773   5.9653
     6.5169   6.7183   6.9201   9.8881  10.0937  10.1623  14.1177  14.2618
    14.4130  16.5888

          k = 0.4500 0.4500 0.4500 (  5034 PWs)   bands (ev):

   -46.0020 -22.4438 -22.2978 -22.2978  -6.2595  -6.0669  -6.0524  -5.0346
    -5.0133  -4.7403  -4.6445  -4.6381   4.3310   5.3006   5.4093   5.8848
     5.9589   6.5041   6.6634  10.0774  10.0916  10.3313  14.2997  14.3892
    14.3931  16.9388

          k =-0.0500 0.1500 0.0500 (  5074 PWs)   bands (ev):

   -46.0052 -22.4030 -22.2475 -22.2475  -7.1322  -6.2274  -6.0629  -5.0811
    -5.0656  -5.0629  -4.9334  -4.9158   4.1290   6.8419   6.8510   7.1945
     8.4524   8.4702   9.0531   9.1290   9.5472   9.5781  12.5542  13.4251
    13.4516  14.7993

          k =-0.0500 0.2500 0.0500 (  5093 PWs)   bands (ev):

   -46.0048 -22.4207 -22.2469 -22.2468  -6.9622  -6.1997  -6.0005  -5.0828
    -5.0802  -5.0726  -4.9958  -4.9114   3.7414   6.8100   6.8985   7.0933
     8.2531   8.2597   9.0772   9.2133   9.6338   9.6897  12.5568  13.7754
    13.8111  14.8061

          k =-0.0500 0.3500 0.0500 (  5090 PWs)   bands (ev):

   -46.0045 -22.4383 -22.2462 -22.2462  -6.7726  -6.1853  -5.9282  -5.1141
    -5.0813  -5.0791  -5.0540  -4.9094   3.4304   6.4458   6.9508   7.0943
     8.0759   8.0888   9.0160   9.4751   9.6908  10.0681  12.5584  14.1159
    14.1575  14.3506

          k =-0.0500 0.4500 0.0500 (  5073 PWs)   bands (ev):

   -46.0042 -22.4491 -22.2458 -22.2458  -6.6372  -6.1911  -5.8759  -5.1546
    -5.0857  -5.0786  -5.0765  -4.9096   3.2650   6.1469   6.9801   7.1435
     7.9657   8.0010   8.9765   9.5718   9.7273  10.5295  12.5565  13.6033
    14.3205  14.3770

          k = 0.1500 0.0500 0.1500 (  5079 PWs)   bands (ev):

   -46.0049 -22.3912 -22.2582 -22.2579  -7.0799  -6.1824  -6.0389  -5.0960
    -5.0647  -5.0625  -4.9509  -4.9115   3.9287   6.8159   7.0244   7.3286
     8.2390   8.4558   8.8987   9.1974   9.4503   9.4858  13.0813  13.2203
    13.2430  15.4224

          k =-0.0500 0.2500 0.1500 (  5077 PWs)   bands (ev):

   -46.0046 -22.4202 -22.2573 -22.2465  -6.8906  -6.1707  -5.9903  -5.0964
    -5.0875  -5.0707  -4.9610  -4.9257   3.6026   6.7002   6.9384   7.2584
     8.0182   8.2556   8.8506   9.2229   9.4183   9.8283  12.8599  13.7485
    13.8136  15.1191

          k = 0.2500 0.0500 0.1500 (  5077 PWs)   bands (ev):

   -46.0046 -22.3905 -22.2751 -22.2574  -6.9615  -6.1263  -5.9908  -5.1050
    -5.0746  -5.0625  -4.9820  -4.9134   3.6363   6.8157   7.0511   7.3070
     8.0883   8.2078   8.8967   9.1722   9.4020   9.6165  13.1987  13.4337
    13.5217  15.2850

          k =-0.0500 0.3500 0.1500 (  5080 PWs)   bands (ev):

   -46.0042 -22.4378 -22.2566 -22.2458  -6.7098  -6.1567  -5.9332  -5.1230
    -5.0870  -5.0767  -4.9919  -4.9234   3.3346   6.3876   6.9140   7.2214
     7.8552   8.1006   8.9590   9.2127   9.4891  10.1330  12.8507  14.0660
    14.1530  14.5393

          k = 0.3500 0.0500 0.1500 (  5080 PWs)   bands (ev):

   -46.0043 -22.3898 -22.2920 -22.2568  -6.8436  -6.0544  -5.9481  -5.1179
    -5.0804  -5.0620  -5.0232  -4.9115   3.3881   6.5767   7.0750   7.4115
     7.8866   8.1922   8.6095   9.2028   9.4121   9.9361  13.1738  13.7836
    13.8872  14.4546

          k =-0.0500 0.4500 0.1500 (  5079 PWs)   bands (ev):

   -46.0040 -22.4486 -22.2562 -22.2454  -6.5848  -6.1578  -5.8939  -5.1469
    -5.0864  -5.0820  -5.0020  -4.9269   3.1869   6.1109   6.8931   7.2715
     7.7600   8.0130   9.0604   9.1929   9.5316  10.3695  12.8363  13.9900
    14.3095  14.3816

          k = 0.4500 0.0500 0.1500 (  5079 PWs)   bands (ev):

   -46.0040 -22.3894 -22.3024 -22.2564  -6.7718  -5.9903  -5.9341  -5.1321
    -5.0829  -5.0616  -5.0449  -4.9130   3.2529   6.3266   7.1848   7.4721
     7.8616   8.0908   8.4243   9.1911   9.4428  10.2179  13.1137  13.9614
    14.0212  14.1447

          k = 0.2500 0.0500 0.2500 (  5076 PWs)   bands (ev):

   -46.0043 -22.3898 -22.2746 -22.2741  -6.8686  -6.0761  -5.9364  -5.1025
    -5.0763  -5.0686  -4.9583  -4.9415   3.4302   6.7739   6.9833   7.3085
     7.7500   7.9492   9.0095   9.0250   9.6116   9.6518  13.3598  13.5096
    13.7567  15.1093

          k =-0.0500 0.3500 0.2500 (  5080 PWs)   bands (ev):

   -46.0039 -22.4369 -22.2735 -22.2451  -6.6186  -6.1173  -5.9116  -5.1177
    -5.0976  -5.0746  -4.9610  -4.9017   3.1842   6.3165   6.9571   7.1410
     7.7629   8.0247   8.4924   9.1414   9.4582  10.0507  13.2735  14.1253
    14.1635  14.8309

          k = 0.3500 0.0500 0.2500 (  5080 PWs)   bands (ev):

   -46.0039 -22.3892 -22.2912 -22.2736  -6.7865  -6.0007  -5.8857  -5.1059
    -5.0783  -5.0694  -4.9703  -4.9386   3.2392   6.5807   6.8900   7.2678
     7.6163   7.9341   8.6690   9.1398   9.5939   9.8886  13.3817  13.8064
    14.0221  14.7708

          k =-0.0500 0.4500 0.2500 (  5084 PWs)   bands (ev):

   -46.0037 -22.4477 -22.2730 -22.2447  -6.5223  -6.1034  -5.8789  -5.1320
    -5.0972  -5.0803  -4.9609  -4.8933   3.0628   6.0538   6.9066   7.1432
     7.6828   7.9951   8.5287   9.1874   9.4333  10.1013  13.2601  14.2639
    14.3646  14.7420

          k = 0.4500 0.0500 0.2500 (  5084 PWs)   bands (ev):

   -46.0037 -22.3887 -22.3015 -22.2732  -6.7426  -5.9287  -5.8666  -5.1146
    -5.0799  -5.0728  -4.9638  -4.9448   3.1291   6.3297   6.9790   7.1195
     7.6599   8.0802   8.3337   9.2269   9.5243  10.0344  13.3583  14.0436
    14.2155  14.5506

          k = 0.3500 0.0500 0.3500 (  5079 PWs)   bands (ev):

   -46.0036 -22.3885 -22.2905 -22.2902  -6.7485  -5.9135  -5.8224  -5.0992
    -5.0835  -5.0669  -4.9847  -4.9054   3.0926   6.4967   6.6812   7.1797
     7.3185   8.0008   8.6974   8.8905   9.5631  10.0318  13.6814  13.8591
    14.1883  15.0282

          k =-0.0500 0.4500 0.3500 (  5079 PWs)   bands (ev):

   -46.0033 -22.4468 -22.2897 -22.2441  -6.4921  -6.0451  -5.8127  -5.1219
    -5.1038  -5.0780  -4.9938  -4.8025   2.9431   5.9992   6.7173   7.1185
     7.6887   7.8820   8.3513   8.8832   9.3068  10.0656  13.6396  14.3601
    14.4335  15.2842

          k = 0.4500 0.0500 0.3500 (  5079 PWs)   bands (ev):

   -46.0033 -22.3880 -22.3007 -22.2899  -6.7337  -5.8332  -5.7917  -5.1017
    -5.0816  -5.0744  -4.9966  -4.8774   3.0040   6.2774   6.7028   7.0314
     7.2841   8.1787   8.4515   8.9101   9.4012  10.1843  13.7498  14.0534
    14.3134  15.0983

          k = 0.4500 0.0500 0.4500 (  5100 PWs)   bands (ev):

   -46.0031 -22.3876 -22.3002 -22.3002  -6.7359  -5.7569  -5.7434  -5.1001
    -5.0791  -5.0738  -5.0272  -4.8324   2.9266   6.1532   6.6141   7.0416
     7.0582   8.3353   8.5179   8.6527   9.1857  10.3589  14.0340  14.0701
    14.3721  15.3985

          k =-0.1500 0.2500 0.1500 (  5084 PWs)   bands (ev):

   -46.0044 -22.4197 -22.2570 -22.2568  -6.8211  -6.1482  -5.9847  -5.1053
    -5.0950  -5.0579  -4.9357  -4.9267   3.5239   6.6907   6.7053   7.3098
     7.9654   8.1212   8.6967   9.3092   9.5319   9.7234  13.0468  13.7200
    13.7931  15.1620

          k =-0.1500 0.3500 0.1500 (  5082 PWs)   bands (ev):

   -46.0040 -22.4373 -22.2563 -22.2561  -6.6450  -6.1366  -5.9490  -5.1264
    -5.0921  -5.0435  -4.9572  -4.9244   3.2983   6.3918   6.5951   7.2199
     7.8829   8.0646   8.6128   9.3199   9.5788   9.9948  12.9841  14.0470
    14.0853  14.6991

          k =-0.1500 0.4500 0.1500 (  5084 PWs)   bands (ev):

   -46.0038 -22.4480 -22.2559 -22.2557  -6.5250  -6.1375  -5.9258  -5.1378
    -5.0902  -5.0268  -4.9731  -4.9308   3.1687   6.1141   6.5316   7.2577
     7.8507   8.0171   8.6101   9.3150   9.6085  10.1253  12.9313  14.2522
    14.2566  14.5079

          k = 0.2500 0.1500 0.2500 (  5081 PWs)   bands (ev):

   -46.0040 -22.4007 -22.2741 -22.2737  -6.7744  -6.0826  -5.9456  -5.1043
    -5.0895  -5.0464  -4.9375  -4.9127   3.4123   6.6186   6.7385   7.1326
     7.5993   7.9512   9.0016   9.2625   9.5362   9.6273  13.3853  13.6160
    13.7547  14.9620

          k =-0.1500 0.3500 0.2500 (  5080 PWs)   bands (ev):

   -46.0037 -22.4364 -22.2731 -22.2556  -6.5509  -6.1135  -5.9447  -5.1178
    -5.0924  -5.0244  -4.9332  -4.8862   3.2276   6.2992   6.5242   6.9479
     7.5981   7.9873   8.5799   9.3821   9.5287   9.8406  13.2487  14.0257
    14.1061  14.9555

          k = 0.3500 0.1500 0.2500 (  5080 PWs)   bands (ev):

   -46.0037 -22.4000 -22.2907 -22.2732  -6.6934  -6.0286  -5.9076  -5.1049
    -5.0816  -5.0254  -4.9369  -4.9126   3.2737   6.5012   6.6395   6.8687
     7.4325   7.9391   8.9231   9.2338   9.4801   9.8161  13.3772  13.7954
    14.0174  14.9121

          k =-0.1500 0.4500 0.2500 (  5077 PWs)   bands (ev):

   -46.0035 -22.4472 -22.2726 -22.2551  -6.4504  -6.1078  -5.9337  -5.1216
    -5.0886  -5.0023  -4.9435  -4.8778   3.1283   6.0607   6.3962   6.9437
     7.5956   8.0428   8.4337   9.4111   9.5244   9.8360  13.2348  14.2356
    14.2875  15.0359

          k = 0.4500 0.1500 0.2500 (  5077 PWs)   bands (ev):

   -46.0035 -22.3996 -22.3010 -22.2727  -6.6511  -5.9874  -5.8818  -5.1042
    -5.0744  -5.0053  -4.9401  -4.9192   3.1881   6.3196   6.5686   6.8009
     7.4043   7.9896   8.7643   9.2865   9.3823   9.8966  13.3790  13.9621
    14.2269  14.9180

          k = 0.3500 0.1500 0.3500 (  5081 PWs)   bands (ev):

   -46.0033 -22.3993 -22.2900 -22.2898  -6.6559  -5.9580  -5.8713  -5.0940
    -5.0754  -5.0003  -4.9270  -4.8889   3.1913   6.4413   6.4696   6.6506
     7.0767   7.9235   8.9507   9.1418   9.2911  10.0346  13.5729  13.8727
    14.1540  15.1949

          k =-0.1500 0.4500 0.3500 (  5079 PWs)   bands (ev):

   -46.0031 -22.4463 -22.2893 -22.2545  -6.4137  -6.0808  -5.8850  -5.1100
    -5.0704  -4.9908  -4.9607  -4.7865   3.0757   5.9768   6.4657   6.6325
     7.1142   8.0325   8.5314   9.0906   9.3023   9.9915  13.6051  14.2193
    14.3772  15.5130

          k = 0.4500 0.1500 0.3500 (  5079 PWs)   bands (ev):

   -46.0031 -22.3989 -22.3002 -22.2894  -6.6430  -5.9030  -5.8468  -5.0899
    -5.0636  -4.9840  -4.9382  -4.8630   3.1346   6.2614   6.4599   6.5328
     6.9636   7.9600   8.8106   9.0885   9.1873  10.1729  13.7056  13.9792
    14.2959  15.4130

          k = 0.4500 0.1500 0.4500 (  5073 PWs)   bands (ev):

   -46.0029 -22.3984 -22.2998 -22.2997  -6.6472  -5.8376  -5.8253  -5.0846
    -5.0435  -4.9701  -4.9578  -4.8184   3.0937   6.1388   6.4468   6.4867
     6.6881   7.9857   8.6069   9.0664   9.0716  10.3534  13.9633  14.0187
    14.3625  15.7182

          k =-0.2500 0.3500 0.2500 (  5072 PWs)   bands (ev):

   -46.0033 -22.4356 -22.2725 -22.2723  -6.4543  -6.1068  -5.9764  -5.1019
    -5.0799  -4.9785  -4.8902  -4.8486   3.2868   6.1199   6.3154   6.6465
     7.4570   7.4675   8.7233   9.5307   9.6337   9.7105  13.3129  14.0002
    14.1069  15.2009

          k =-0.2500 0.4500 0.2500 (  5073 PWs)   bands (ev):

   -46.0031 -22.4464 -22.2720 -22.2718  -6.3499  -6.1154  -5.9861  -5.1010
    -5.0712  -4.9373  -4.8951  -4.8334   3.2299   5.9813   6.0932   6.5951
     7.4449   7.4736   8.5100   9.4702   9.6635   9.7582  13.3838  14.1499
    14.3009  15.4733

          k = 0.3500 0.2500 0.3500 (  5057 PWs)   bands (ev):

   -46.0030 -22.4168 -22.2893 -22.2891  -6.5018  -6.0227  -5.9392  -5.0705
    -5.0685  -4.9258  -4.8495  -4.8386   3.3573   6.0745   6.0964   6.4708
     6.9882   7.3337   8.4929   9.5179   9.5778  10.0402  13.5469  13.9813
    14.1644  15.5035

          k =-0.2500 0.4500 0.3500 (  5063 PWs)   bands (ev):

   -46.0028 -22.4455 -22.2886 -22.2713  -6.2923  -6.1284  -5.9749  -5.0843
    -5.0442  -4.9148  -4.8520  -4.7549   3.3205   5.8053   6.0974   6.2804
     6.8752   7.4318   8.0778   9.4585   9.7737   9.9522  13.6798  14.1568
    14.3527  15.8595

          k = 0.4500 0.2500 0.3500 (  5063 PWs)   bands (ev):

   -46.0028 -22.4163 -22.2995 -22.2887  -6.4929  -5.9975  -5.9184  -5.0653
    -5.0532  -4.8781  -4.8409  -4.8216   3.3719   5.9584   6.0590   6.2532
     6.8650   7.3276   8.1465   9.5554   9.5760  10.1662  13.7728  13.9881
    14.3057  15.8268

          k = 0.4500 0.2500 0.4500 (  5070 PWs)   bands (ev):

   -46.0026 -22.4159 -22.2990 -22.2990  -6.5015  -5.9387  -5.9269  -5.0574
    -5.0382  -4.8360  -4.8234  -4.7896   3.4214   5.9129   5.9279   6.1236
     6.6597   7.2916   7.7345   9.5904   9.5968  10.3447  13.9931  14.0636
    14.3604  16.1432

          k =-0.3500 0.4500 0.3500 (  5056 PWs)   bands (ev):

   -46.0024 -22.4448 -22.2880 -22.2879  -6.2196  -6.1384  -6.0305  -5.0607
    -5.0284  -4.8453  -4.7535  -4.7097   3.6169   5.5394   5.8837   6.0370
     6.7253   6.9642   7.3349   9.8230   9.9681  10.0558  13.8978  14.2270
    14.3569  16.2391

          k = 0.4500 0.3500 0.4500 (  5051 PWs)   bands (ev):

   -46.0022 -22.4332 -22.2983 -22.2982  -6.3532  -6.0208  -6.0084  -5.0359
    -5.0302  -4.7655  -4.7101  -4.7054   3.8807   5.5185   5.5251   6.0263
     6.6610   6.7208   6.7934   9.9296   9.9402  10.3363  14.1589  14.2330
    14.3641  16.5890

     the Fermi energy is    10.4144 ev

!    total energy              =    -364.95031104 Ry
     Harris-Foulkes estimate   =    -364.95031104 Ry
     estimated scf accuracy    <          3.9E-09 Ry

     The total energy is the sum of the following terms:

     one-electron contribution =     -83.87945603 Ry
     hartree contribution      =      71.35917001 Ry
     xc contribution           =     -85.84397978 Ry
     ewald contribution        =    -266.59208629 Ry
     smearing contrib. (-TS)   =       0.00604104 Ry

     convergence has been achieved in   7 iterations

     Forces acting on atoms (cartesian axes, Ry/au):

     atom    1 type  1   force =     0.00000000    0.02328169    0.00000000
     atom    2 type  2   force =     0.00000000   -0.06193579    0.00000000
     atom    3 type  3   force =     0.00000000    0.00874716    0.00000000
     atom    4 type  3   force =     0.00000000    0.02115978    0.00000000
     atom    5 type  3   force =     0.00000000    0.00874716    0.00000000

     Total force =     0.024510     Total SCF correction =     0.000011


     Computing stress (Cartesian axis) and pressure

          total   stress  (Ry/bohr**3)                   (kbar)     P=   25.76
   0.00004224   0.00000000   0.00000000          6.21      0.00      0.00
   0.00000000   0.00044088   0.00000000          0.00     64.86      0.00
   0.00000000   0.00000000   0.00004224          0.00      0.00      6.21


     number of scf cycles    =   2
     number of bfgs steps    =   1

     energy   old            =    -364.9490734662 Ry
     energy   new            =    -364.9503110385 Ry

     CASE: energy  _new < energy  _old

     new trust radius        =       0.0422512587 bohr
     new conv_thr            =       0.0000000012 Ry


ATOMIC_POSITIONS (crystal)
Pb       0.000000000   0.000000000   0.000000000    0   0   0
Ti       0.500000000   0.560000000   0.500000000    0   0   0
O        0.500000000   0.503016306   0.000000000
O        0.500000000   0.010769225   0.500000000
O        0.000000000   0.503016306   0.500000000



     Writing output data file PbTiO3.save/
     NEW-OLD atomic charge density approx. for the potential

     Check: negative core charge=   -0.000006

     total cpu time spent up to now is      517.0 secs

     Self-consistent Calculation

     iteration #  1     ecut=    80.00 Ry     beta= 0.70
     Davidson diagonalization with overlap
     ethr =  1.00E-06,  avg # of iterations =  4.2

     total cpu time spent up to now is      549.1 secs

     total energy              =    -364.95097361 Ry
     Harris-Foulkes estimate   =    -364.95132914 Ry
     estimated scf accuracy    <       0.00052419 Ry

     iteration #  2     ecut=    80.00 Ry     beta= 0.70
     Davidson diagonalization with overlap
     ethr =  1.19E-06,  avg # of iterations =  4.4

     total cpu time spent up to now is      575.5 secs

     total energy              =    -364.95083452 Ry
     Harris-Foulkes estimate   =    -364.95148060 Ry
     estimated scf accuracy    <       0.00171607 Ry

     iteration #  3     ecut=    80.00 Ry     beta= 0.70
     Davidson diagonalization with overlap
     ethr =  1.19E-06,  avg # of iterations =  3.7

     total cpu time spent up to now is      599.7 secs

     total energy              =    -364.95116555 Ry
     Harris-Foulkes estimate   =    -364.95119933 Ry
     estimated scf accuracy    <       0.00010282 Ry

     iteration #  4     ecut=    80.00 Ry     beta= 0.70
     Davidson diagonalization with overlap
     ethr =  2.34E-07,  avg # of iterations =  2.7

     total cpu time spent up to now is      620.4 secs

     total energy              =    -364.95118029 Ry
     Harris-Foulkes estimate   =    -364.95118226 Ry
     estimated scf accuracy    <       0.00000388 Ry

     iteration #  5     ecut=    80.00 Ry     beta= 0.70
     Davidson diagonalization with overlap
     ethr =  8.82E-09,  avg # of iterations =  3.8

     total cpu time spent up to now is      644.5 secs

     total energy              =    -364.95118157 Ry
     Harris-Foulkes estimate   =    -364.95118195 Ry
     estimated scf accuracy    <       0.00000074 Ry

     iteration #  6     ecut=    80.00 Ry     beta= 0.70
     Davidson diagonalization with overlap
     ethr =  1.67E-09,  avg # of iterations =  3.3

     total cpu time spent up to now is      667.9 secs

     total energy              =    -364.95118172 Ry
     Harris-Foulkes estimate   =    -364.95118197 Ry
     estimated scf accuracy    <       0.00000076 Ry

     iteration #  7     ecut=    80.00 Ry     beta= 0.70
     Davidson diagonalization with overlap
     ethr =  1.67E-09,  avg # of iterations =  2.3

     total cpu time spent up to now is      688.4 secs

     total energy              =    -364.95118183 Ry
     Harris-Foulkes estimate   =    -364.95118183 Ry
     estimated scf accuracy    <          3.2E-09 Ry

     iteration #  8     ecut=    80.00 Ry     beta= 0.70
     Davidson diagonalization with overlap
     ethr =  7.28E-12,  avg # of iterations =  4.5

     total cpu time spent up to now is      718.3 secs

     End of self-consistent calculation

          k = 0.0500 0.0500 0.0500 (  5047 PWs)   bands (ev):

   -46.0533 -22.4066 -22.2965 -22.2965  -7.2306  -6.2404  -6.1115  -5.0721
    -5.0502  -5.0499  -4.9126  -4.8930   4.4407   6.8090   6.8562   7.0119
     8.6792   8.7103   9.1437   9.2233   9.5009   9.5310  12.5146  13.0949
    13.1092  14.7458

          k = 0.0500 0.0500 0.1500 (  5074 PWs)   bands (ev):

   -46.0531 -22.4062 -22.3071 -22.2961  -7.1512  -6.2058  -6.0828  -5.0797
    -5.0582  -5.0496  -4.9420  -4.8931   4.1463   6.8650   6.9409   7.1856
     8.4898   8.6779   9.0715   9.1485   9.3691   9.5178  12.8280  13.1042
    13.1346  14.9604

          k = 0.0500 0.0500 0.2500 (  5093 PWs)   bands (ev):

   -46.0527 -22.4056 -22.3240 -22.2955  -7.0188  -6.1446  -6.0376  -5.0922
    -5.0717  -5.0488  -4.9976  -4.8895   3.7788   6.8760   7.0485   7.2207
     8.4219   8.5128   8.9755   9.0649   9.2830   9.5735  13.1052  13.2826
    13.4102  14.9467

          k = 0.0500 0.0500 0.3500 (  5090 PWs)   bands (ev):

   -46.0524 -22.4049 -22.3409 -22.2949  -6.8806  -6.0725  -5.9972  -5.1094
    -5.0887  -5.0515  -5.0479  -4.8876   3.4894   6.5573   7.2371   7.3837
     8.1696   8.3083   8.8952   8.9740   9.3667   9.9429  13.1047  13.6913
    13.7943  14.2240

          k = 0.0500 0.0500 0.4500 (  5073 PWs)   bands (ev):

   -46.0522 -22.4045 -22.3513 -22.2945  -6.7918  -6.0130  -5.9830  -5.1347
    -5.1009  -5.0723  -5.0475  -4.8878   3.3381   6.2984   7.4408   7.6362
     7.8857   8.0095   8.8856   8.9360   9.4185  10.3821  13.0822  13.5238
    13.9334  14.0654

          k = 0.0500 0.1500 0.1500 (  5079 PWs)   bands (ev):

   -46.0528 -22.4172 -22.3066 -22.2957  -7.0560  -6.1864  -6.0548  -5.0796
    -5.0692  -5.0565  -4.9330  -4.9150   3.9246   6.8199   6.9193   7.3402
     8.2876   8.5074   8.9286   9.2017   9.3371   9.6132  12.8274  13.3283
    13.3645  15.0538

          k = 0.0500 0.1500 0.2500 (  5077 PWs)   bands (ev):

   -46.0525 -22.4165 -22.3236 -22.2951  -6.9279  -6.1329  -6.0175  -5.0948
    -5.0804  -5.0560  -4.9642  -4.9058   3.6307   6.7817   7.0430   7.2821
     8.1815   8.3658   8.8129   9.0569   9.2528   9.7627  13.2615  13.3549
    13.5800  15.0567

          k = 0.0500 0.1500 0.3500 (  5080 PWs)   bands (ev):

   -46.0522 -22.4157 -22.3404 -22.2945  -6.7961  -6.0771  -5.9778  -5.1129
    -5.0911  -5.0556  -4.9903  -4.9032   3.3837   6.5380   7.1694   7.3310
     7.9509   8.2313   8.7568   9.0203   9.2318  10.0002  13.3291  13.6829
    13.9103  14.3911

          k = 0.0500 0.1500 0.4500 (  5079 PWs)   bands (ev):

   -46.0519 -22.4153 -22.3508 -22.2941  -6.7128  -6.0416  -5.9513  -5.1269
    -5.1004  -5.0553  -4.9986  -4.9066   3.2500   6.2994   7.2939   7.4980
     7.7573   7.9928   8.7720   9.0920   9.1997  10.1943  13.3059  13.8965
    13.9345  14.1493

          k = 0.0500 0.2500 0.2500 (  5076 PWs)   bands (ev):

   -46.0522 -22.4340 -22.3228 -22.2944  -6.7781  -6.1185  -5.9750  -5.0983
    -5.0858  -5.0638  -4.9415  -4.9174   3.4059   6.6371   7.0418   7.1799
     7.9617   8.1154   8.5810   9.0750   9.4237   9.9209  13.2598  13.7057
    13.8469  14.9976

          k = 0.0500 0.2500 0.3500 (  5080 PWs)   bands (ev):

   -46.0518 -22.4332 -22.3396 -22.2938  -6.6658  -6.0845  -5.9258  -5.1084
    -5.0900  -5.0651  -4.9515  -4.8955   3.2159   6.4842   6.9524   7.2513
     7.7417   8.0930   8.4938   8.8733   9.5364   9.9216  13.6302  13.7197
    14.0852  14.6969

          k = 0.0500 0.2500 0.4500 (  5084 PWs)   bands (ev):

   -46.0516 -22.4327 -22.3499 -22.2934  -6.6002  -6.0637  -5.8865  -5.1139
    -5.0987  -5.0662  -4.9450  -4.8914   3.1081   6.2865   6.9753   7.2806
     7.6057   8.1072   8.4438   8.8492   9.5678   9.8747  13.6774  13.8905
    14.2752  14.5023

          k = 0.0500 0.3500 0.3500 (  5079 PWs)   bands (ev):

   -46.0515 -22.4506 -22.3388 -22.2931  -6.5559  -6.0613  -5.8657  -5.1074
    -5.0929  -5.0680  -4.9747  -4.8362   3.0534   6.2706   6.7248   7.2170
     7.6604   7.9441   8.3812   8.8521   9.5359   9.9493  13.6292  14.0560
    14.2615  15.0354

          k = 0.0500 0.3500 0.4500 (  5079 PWs)   bands (ev):

   -46.0512 -22.4500 -22.3491 -22.2927  -6.5245  -6.0310  -5.8142  -5.1080
    -5.0972  -5.0708  -4.9827  -4.8013   2.9680   6.1786   6.5837   7.3207
     7.4399   8.1161   8.2976   8.7264   9.3592  10.0021  13.8526  14.0519
    14.4201  15.0646

          k = 0.0500 0.4500 0.4500 (  5100 PWs)   bands (ev):

   -46.0510 -22.4607 -22.3485 -22.2923  -6.5021  -5.9777  -5.7649  -5.1109
    -5.0968  -5.0711  -5.0068  -4.7496   2.8827   5.9732   6.4875   7.2551
     7.4686   8.0180   8.3648   8.6804   9.0472  10.1810  13.8283  14.2799
    14.5177  15.4426

          k = 0.1500 0.1500 0.1500 (  5095 PWs)   bands (ev):

   -46.0526 -22.4167 -22.3064 -22.3061  -6.9824  -6.1610  -6.0326  -5.0874
    -5.0746  -5.0567  -4.9315  -4.9148   3.7773   6.7833   6.8480   7.4430
     8.1415   8.3251   8.8715   9.2675   9.4656   9.4877  13.0463  13.3291
    13.3770  15.5298

          k = 0.1500 0.1500 0.2500 (  5084 PWs)   bands (ev):

   -46.0523 -22.4160 -22.3231 -22.3056  -6.8631  -6.1172  -5.9955  -5.1003
    -5.0767  -5.0536  -4.9477  -4.9059   3.5532   6.7322   6.8410   7.3019
     7.9445   8.1481   8.9361   9.2044   9.3662   9.6811  13.2798  13.4276
    13.5790  15.1272

          k = 0.1500 0.1500 0.3500 (  5082 PWs)   bands (ev):

   -46.0519 -22.4153 -22.3399 -22.3049  -6.7450  -6.0694  -5.9559  -5.1120
    -5.0694  -5.0487  -4.9706  -4.9033   3.3490   6.5323   6.8557   7.1807
     7.7565   8.1871   8.7401   9.2160   9.3720   9.8831  13.2389  13.7243
    13.9063  14.6166

          k = 0.1500 0.1500 0.4500 (  5084 PWs)   bands (ev):

   -46.0517 -22.4149 -22.3503 -22.3045  -6.6735  -6.0377  -5.9292  -5.1165
    -5.0631  -5.0437  -4.9857  -4.9077   3.2333   6.3044   6.8585   7.2141
     7.6681   8.2977   8.4918   9.2963   9.3505   9.9840  13.1790  13.9329
    14.1410  14.3638

          k = 0.1500 0.2500 0.2500 (  5081 PWs)   bands (ev):

   -46.0519 -22.4335 -22.3224 -22.3049  -6.7113  -6.1086  -5.9776  -5.1022
    -5.0871  -5.0402  -4.9231  -4.8999   3.3995   6.5720   6.6976   7.1184
     7.6924   7.9878   8.8318   9.2825   9.4735   9.7779  13.2859  13.6562
    13.8053  14.9469

          k = 0.1500 0.2500 0.3500 (  5080 PWs)   bands (ev):

   -46.0516 -22.4328 -22.3391 -22.3042  -6.6058  -6.0900  -5.9345  -5.1049
    -5.0756  -5.0319  -4.9253  -4.8803   3.2602   6.4499   6.6685   6.8998
     7.3789   8.0380   8.9261   9.0587   9.5406   9.7667  13.4505  13.7275
    14.0373  14.8940

          k = 0.1500 0.2500 0.4500 (  5077 PWs)   bands (ev):

   -46.0514 -22.4323 -22.3495 -22.3038  -6.5456  -6.0827  -5.8962  -5.1033
    -5.0648  -5.0313  -4.9185  -4.8783   3.1756   6.2838   6.6490   6.8162
     7.2727   8.1377   8.7584   9.1336   9.4842   9.7299  13.4916  13.8752
    14.2325  14.9028

          k = 0.1500 0.3500 0.3500 (  5081 PWs)   bands (ev):

[...]
    -4.8767  -4.8022  -4.6807  -4.5452   3.3968   6.3083   6.3257   6.8362
     7.4145   7.4493   9.0437   9.1799   9.5161   9.6201  13.2498  13.6336
    13.7336  15.2735

          k = 0.2500 0.2500 0.3500 (  5072 PWs)   bands (ev):

   -46.1829 -22.5139 -22.4853 -22.4677  -6.7008  -6.3468  -6.1241  -4.8745
    -4.8590  -4.7703  -4.6389  -4.5351   3.2766   6.1484   6.1947   6.5299
     7.1150   7.4874   8.9809   9.3120   9.4691   9.6264  13.3992  13.6872
    13.9230  15.4658

          k = 0.2500 0.2500 0.4500 (  5073 PWs)   bands (ev):

   -46.1827 -22.5133 -22.4958 -22.4672  -6.6347  -6.3062  -6.1516  -4.8719
    -4.8471  -4.7462  -4.6071  -4.5400   3.1990   6.0183   6.0571   6.4100
     7.0182   7.5614   8.8231   9.3673   9.3987   9.6659  13.4918  13.7686
    14.1038  15.7441

          k = 0.2500 0.3500 0.3500 (  5057 PWs)   bands (ev):

   -46.1826 -22.5308 -22.4846 -22.4670  -6.6565  -6.3529  -6.0219  -4.8648
    -4.8428  -4.7486  -4.6175  -4.5015   3.3375   5.9199   5.9705   6.3788
     6.7347   7.2704   8.7878   9.3403   9.4557   9.8199  13.4956  13.8998
    14.0806  15.6877

          k = 0.2500 0.3500 0.4500 (  5063 PWs)   bands (ev):

   -46.1824 -22.5302 -22.4950 -22.4665  -6.6192  -6.3081  -6.0373  -4.8597
    -4.8287  -4.7283  -4.5875  -4.4839   3.3087   5.7683   5.9042   6.1749
     6.6349   7.3093   8.4977   9.3419   9.4680   9.9336  13.7348  13.8560
    14.2175  16.0746

          k = 0.2500 0.4500 0.4500 (  5070 PWs)   bands (ev):

   -46.1822 -22.5406 -22.4945 -22.4661  -6.6202  -6.3094  -5.9526  -4.8563
    -4.8125  -4.7151  -4.5765  -4.4496   3.3710   5.6669   5.7385   6.0802
     6.3915   7.2538   8.1819   9.3595   9.4847  10.0922  13.7972  14.0577
    14.3162  16.2770

          k = 0.3500 0.3500 0.3500 (  5055 PWs)   bands (ev):

   -46.1822 -22.5300 -22.4839 -22.4838  -6.5274  -6.3682  -6.0644  -4.8353
    -4.8350  -4.6893  -4.5486  -4.4795   3.3679   5.6874   5.8017   6.1407
     6.7573   6.7658   8.2468   9.6169   9.7190   9.8602  13.6687  14.0272
    14.0450  16.0836

          k = 0.3500 0.3500 0.4500 (  5056 PWs)   bands (ev):

   -46.1820 -22.5295 -22.4943 -22.4834  -6.4749  -6.3442  -6.0934  -4.8316
    -4.8156  -4.6467  -4.5116  -4.4652   3.3657   5.5732   5.7628   5.9498
     6.5544   6.8045   7.8209   9.7318   9.7868   9.9435  13.8717  13.9859
    14.1761  16.4950

          k = 0.3500 0.4500 0.4500 (  5051 PWs)   bands (ev):

   -46.1818 -22.5399 -22.4938 -22.4830  -6.4834  -6.3591  -6.0054  -4.8217
    -4.8064  -4.6292  -4.4814  -4.4277   3.5525   5.3777   5.5646   5.8562
     6.3784   6.6839   7.3990   9.7553   9.8976  10.0979  13.9747  14.1352
    14.2669  16.7488

          k = 0.4500 0.4500 0.4500 (  5034 PWs)   bands (ev):

   -46.1816 -22.5394 -22.4934 -22.4934  -6.4007  -6.3847  -6.0360  -4.8063
    -4.7969  -4.5739  -4.4242  -4.4148   3.6388   5.3743   5.4372   5.7414
     6.3814   6.3941   6.8091   9.9340  10.0905  10.1070  14.1402  14.2347
    14.2430  17.1622

          k =-0.0500 0.1500 0.0500 (  5074 PWs)   bands (ev):

   -46.1847 -22.4997 -22.4425 -22.4425  -7.3588  -6.4572  -6.1588  -4.8741
    -4.8738  -4.8356  -4.7880  -4.5887   4.2808   6.6503   6.6713   7.4290
     8.5979   8.6081   9.0042   9.0070   9.2387   9.3358  12.3712  13.1503
    13.1792  14.6075

          k =-0.0500 0.2500 0.0500 (  5093 PWs)   bands (ev):

   -46.1844 -22.5170 -22.4419 -22.4418  -7.2405  -6.4237  -6.0925  -4.8859
    -4.8812  -4.8346  -4.7708  -4.6270   3.9347   6.7083   6.7179   7.1784
     8.3607   8.3787   8.9630   9.0342   9.2650   9.5393  12.3731  13.5461
    13.5841  14.6125

          k =-0.0500 0.3500 0.0500 (  5090 PWs)   bands (ev):

   -46.1840 -22.5342 -22.4412 -22.4412  -7.1219  -6.3888  -6.0214  -4.8975
    -4.8890  -4.8336  -4.7525  -4.6670   3.6497   6.5371   6.7869   6.9387
     8.1598   8.1822   8.9030   9.1220   9.2985  10.0110  12.3744  13.9265
    13.9705  14.2031

          k =-0.0500 0.4500 0.0500 (  5073 PWs)   bands (ev):

   -46.1838 -22.5448 -22.4408 -22.4408  -7.0486  -6.3663  -5.9746  -4.9045
    -4.8939  -4.8330  -4.7407  -4.6927   3.4959   6.2479   6.8306   6.9607
     8.0468   8.0597   8.8636   9.1672   9.3212  10.4570  12.3737  13.5143
    14.1541  14.2148

          k = 0.1500 0.0500 0.1500 (  5079 PWs)   bands (ev):

   -46.1845 -22.4883 -22.4532 -22.4530  -7.2579  -6.4360  -6.1878  -4.8957
    -4.8732  -4.8452  -4.7630  -4.5623   3.9947   6.6303   6.8702   7.3898
     8.3281   8.4097   8.9080   9.0335   9.1150   9.6681  12.8553  12.9446
    13.0083  15.1654

          k =-0.0500 0.2500 0.1500 (  5077 PWs)   bands (ev):

   -46.1842 -22.5166 -22.4524 -22.4414  -7.1630  -6.4130  -6.0808  -4.8873
    -4.8759  -4.8422  -4.7672  -4.6057   3.7808   6.5748   6.7796   7.2885
     8.0584   8.2946   8.6903   9.0558   9.1637   9.7612  12.6640  13.5322
    13.6036  14.9389

          k = 0.2500 0.0500 0.1500 (  5077 PWs)   bands (ev):

   -46.1842 -22.4877 -22.4701 -22.4524  -7.1125  -6.4020  -6.1891  -4.9110
    -4.8711  -4.8422  -4.7391  -4.5673   3.6711   6.5925   6.9109   7.2695
     7.9924   8.3392   8.7594   9.0582   9.1427   9.8441  12.9599  13.1969
    13.2993  15.1786

          k =-0.0500 0.3500 0.1500 (  5080 PWs)   bands (ev):

   -46.1838 -22.5337 -22.4518 -22.4408  -7.0537  -6.3843  -6.0045  -4.8979
    -4.8711  -4.8415  -4.7563  -4.6326   3.5425   6.3833   6.8008   7.0573
     7.9023   8.1462   8.6446   9.0866   9.1601  10.1135  12.6574  13.9007
    13.9843  14.4476

          k = 0.3500 0.0500 0.1500 (  5080 PWs)   bands (ev):

   -46.1838 -22.4887 -22.4855 -22.4518  -6.9582  -6.3632  -6.2007  -4.9208
    -4.8656  -4.8357  -4.7113  -4.5881   3.4059   6.3130   6.9521   7.3070
     7.7108   8.2455   8.5791   9.0705   9.2352  10.1173  12.9742  13.5643
    13.6585  14.9876

          k =-0.0500 0.4500 0.1500 (  5079 PWs)   bands (ev):

   -46.1836 -22.5442 -22.4513 -22.4404  -6.9879  -6.3656  -5.9531  -4.9045
    -4.8682  -4.8410  -4.7491  -4.6498   3.4091   6.1459   6.7873   7.0463
     7.8163   8.0513   8.6596   9.1000   9.1508  10.3858  12.6484  13.9360
    14.1298  14.2225

          k = 0.4500 0.0500 0.1500 (  5079 PWs)   bands (ev):

   -46.1836 -22.4980 -22.4864 -22.4514  -6.8573  -6.3291  -6.2217  -4.9240
    -4.8621  -4.8303  -4.6744  -4.6250   3.2655   6.0497   7.0546   7.3248
     7.6802   7.9355   8.6115   9.0470   9.2875  10.3605  12.9679  13.7988
    13.9148  14.5134

          k = 0.2500 0.0500 0.2500 (  5076 PWs)   bands (ev):

   -46.1838 -22.4872 -22.4694 -22.4694  -6.9721  -6.3686  -6.2058  -4.9128
    -4.8697  -4.8239  -4.7092  -4.5701   3.3954   6.5774   6.8008   7.2160
     7.8622   8.0029   8.6933   8.9729   9.3065   9.9451  13.1761  13.2654
    13.5204  15.3054

          k =-0.0500 0.3500 0.2500 (  5080 PWs)   bands (ev):

   -46.1835 -22.5329 -22.4688 -22.4401  -6.9538  -6.3613  -5.9757  -4.8960
    -4.8585  -4.8464  -4.7550  -4.5815   3.3778   6.2277   6.8714   6.9823
     7.7137   7.8271   8.3811   8.8190   9.4471  10.0781  13.0756  13.9571
    14.0573  14.8266

          k = 0.3500 0.0500 0.2500 (  5080 PWs)   bands (ev):

   -46.1835 -22.4880 -22.4849 -22.4687  -6.8256  -6.3325  -6.2278  -4.9126
    -4.8601  -4.7979  -4.6812  -4.5874   3.1521   6.3261   6.7336   7.2092
     7.6916   8.0195   8.4392   9.0134   9.4123  10.0009  13.2142  13.5940
    13.7774  15.2058

          k =-0.0500 0.4500 0.2500 (  5084 PWs)   bands (ev):

   -46.1833 -22.5433 -22.4683 -22.4397  -6.9064  -6.3424  -5.9146  -4.9024
    -4.8534  -4.8362  -4.7586  -4.5823   3.2731   6.0120   6.7904   6.9844
     7.6644   7.7748   8.3031   8.8320   9.4635  10.1654  13.0661  14.1842
    14.2608  14.5874

          k = 0.4500 0.0500 0.2500 (  5084 PWs)   bands (ev):

   -46.1833 -22.4971 -22.4858 -22.4682  -6.7314  -6.3018  -6.2515  -4.9112
    -4.8526  -4.7731  -4.6538  -4.6191   3.0161   6.0610   6.8118   7.1157
     7.7178   7.9887   8.2985   9.0721   9.4277  10.0264  13.2101  13.8384
    13.9644  15.0269

          k = 0.3500 0.0500 0.3500 (  5079 PWs)   bands (ev):

   -46.1831 -22.4879 -22.4857 -22.4835  -6.6943  -6.3003  -6.2506  -4.9052
    -4.8433  -4.7556  -4.6515  -4.5994   2.9157   6.2525   6.4458   7.2465
     7.6344   7.9043   8.3803   8.8412   9.6689   9.7829  13.5361  13.6394
    13.9298  15.2753

          k =-0.0500 0.4500 0.3500 (  5079 PWs)   bands (ev):

   -46.1829 -22.5424 -22.4852 -22.4391  -6.8535  -6.2805  -5.8751  -4.9011
    -4.8627  -4.8279  -4.7471  -4.5195   3.1463   5.8990   6.5367   7.0178
     7.3520   7.7307   8.2027   8.6136   9.5967  10.0199  13.4533  14.2032
    14.3996  15.1659

          k = 0.4500 0.0500 0.3500 (  5079 PWs)   bands (ev):

   -46.1829 -22.4963 -22.4866 -22.4836  -6.6166  -6.2761  -6.2634  -4.9011
    -4.8285  -4.7154  -4.6358  -4.6212   2.7778   6.0207   6.4541   7.2258
     7.5557   8.0463   8.2313   8.8057   9.5821   9.8103  13.5810  13.8546
    14.0448  15.2571

          k = 0.4500 0.0500 0.4500 (  5100 PWs)   bands (ev):

   -46.1827 -22.4958 -22.4957 -22.4844  -6.5598  -6.2580  -6.2566  -4.8958
    -4.8046  -4.6698  -4.6391  -4.6243   2.6357   5.8986   6.3443   7.3367
     7.3937   8.1503   8.2313   8.6295   9.3173   9.9634  13.8474  13.8691
    14.1086  15.2354

          k =-0.1500 0.2500 0.1500 (  5084 PWs)   bands (ev):

   -46.1840 -22.5161 -22.4521 -22.4519  -7.0840  -6.4044  -6.0784  -4.8911
    -4.8714  -4.8425  -4.7494  -4.5877   3.6739   6.5680   6.5895   7.3090
     7.8969   7.9995   8.7303   9.0682   9.2960   9.7445  12.8495  13.5027
    13.6306  15.2976

          k =-0.1500 0.3500 0.1500 (  5082 PWs)   bands (ev):

   -46.1836 -22.5332 -22.4514 -22.4513  -6.9819  -6.3845  -5.9983  -4.9000
    -4.8556  -4.8378  -4.7434  -4.6061   3.4840   6.3818   6.5123   7.0420
     7.8598   7.8632   8.5913   9.1021   9.3096  10.0157  12.8103  13.8635
    13.9908  14.6788

          k =-0.1500 0.4500 0.1500 (  5084 PWs)   bands (ev):

   -46.1834 -22.5437 -22.4510 -22.4509  -6.9218  -6.3720  -5.9429  -4.9045
    -4.8490  -4.8293  -4.7415  -4.6185   3.3724   6.1403   6.4717   6.9912
     7.7969   7.8777   8.4992   9.1232   9.3051  10.1859  12.7754  14.0947
    14.2109  14.3560

          k = 0.2500 0.1500 0.2500 (  5081 PWs)   bands (ev):

   -46.1836 -22.4976 -22.4691 -22.4689  -6.9123  -6.3704  -6.1699  -4.8989
    -4.8732  -4.8169  -4.6977  -4.5598   3.4020   6.4850   6.6302   6.9289
     7.6784   7.9052   8.9115   9.0074   9.3695   9.7862  13.2650  13.3890
    13.5574  15.4025

          k =-0.1500 0.3500 0.2500 (  5080 PWs)   bands (ev):

   -46.1833 -22.5324 -22.4683 -22.4507  -6.8755  -6.3708  -5.9870  -4.8935
    -4.8604  -4.8141  -4.7211  -4.5632   3.3814   6.2132   6.4659   6.8310
     7.3382   7.7755   8.7233   9.0069   9.4965   9.8655  13.1048  13.8908
    14.0206  15.0221

          k = 0.3500 0.1500 0.2500 (  5080 PWs)   bands (ev):

   -46.1833 -22.4970 -22.4859 -22.4683  -6.7706  -6.3386  -6.1967  -4.8973
    -4.8611  -4.7877  -4.6642  -4.5677   3.2022   6.2960   6.5504   6.7328
     7.4251   7.9738   8.7486   9.1028   9.4583   9.7775  13.2946  13.6103
    13.8093  15.3190

          k =-0.1500 0.4500 0.2500 (  5077 PWs)   bands (ev):

   -46.1831 -22.5429 -22.4679 -22.4503  -6.8307  -6.3617  -5.9235  -4.8962
    -4.8535  -4.7946  -4.7258  -4.5626   3.3042   6.0219   6.3867   6.7090
     7.3132   7.7535   8.6268   9.0365   9.5122   9.8871  13.0888  14.1203
    14.2103  14.9401

          k = 0.4500 0.1500 0.2500 (  5077 PWs)   bands (ev):

   -46.1831 -22.4971 -22.4958 -22.4679  -6.6829  -6.3040  -6.2266  -4.8952
    -4.8523  -4.7623  -4.6319  -4.5929   3.0857   6.0556   6.5115   6.7054
     7.3317   8.0848   8.5711   9.1679   9.4834   9.7386  13.2841  13.7961
    14.0143  15.3414

          k = 0.3500 0.1500 0.3500 (  5081 PWs)   bands (ev):

   -46.1829 -22.4964 -22.4852 -22.4851  -6.6326  -6.3170  -6.2324  -4.8887
    -4.8416  -4.7394  -4.6292  -4.5705   3.0130   6.2423   6.3521   6.5943
     7.1207   7.9464   8.8743   8.9826   9.5006   9.6781  13.5197  13.6782
    13.9326  15.5662

          k =-0.1500 0.4500 0.3500 (  5079 PWs)   bands (ev):

   -46.1827 -22.5420 -22.4848 -22.4496  -6.7720  -6.3111  -5.9039  -4.8899
    -4.8450  -4.7876  -4.6965  -4.5052   3.2300   5.8834   6.3408   6.5238
     6.7507   7.8009   8.7211   8.8775   9.3300   9.9446  13.4611  14.1118
    14.3047  15.4849

          k = 0.4500 0.1500 0.3500 (  5079 PWs)   bands (ev):

   -46.1827 -22.4963 -22.4951 -22.4847  -6.5490  -6.2933  -6.2612  -4.8841
    -4.8258  -4.6965  -4.6083  -4.5858   2.8958   6.0144   6.3794   6.5549
     6.9770   8.0106   8.7464   9.0439   9.2772   9.7954  13.5897  13.8255
    14.0646  15.7835

          k = 0.4500 0.1500 0.4500 (  5073 PWs)   bands (ev):

   -46.1825 -22.4960 -22.4953 -22.4943  -6.4726  -6.2844  -6.2765  -4.8787
    -4.8027  -4.6438  -4.5956  -4.5950   2.7745   5.8903   6.3241   6.6381
     6.7243   8.0259   8.7602   8.9479   9.0118   9.9589  13.8225  13.8539
    14.1307  15.8418

          k =-0.2500 0.3500 0.2500 (  5072 PWs)   bands (ev):

   -46.1829 -22.5316 -22.4677 -22.4676  -6.7546  -6.3768  -6.0037  -4.8783
    -4.8569  -4.7792  -4.6676  -4.5324   3.3701   6.1175   6.1409   6.5695
     7.1183   7.3409   8.9801   9.2438   9.5506   9.6426  13.2411  13.9313
    13.9519  15.3192

          k =-0.2500 0.4500 0.2500 (  5073 PWs)   bands (ev):

   -46.1827 -22.5420 -22.4673 -22.4671  -6.7184  -6.3789  -5.9349  -4.8782
    -4.8468  -4.7577  -4.6636  -4.5254   3.3430   5.9995   6.0200   6.3493
     7.0759   7.3019   8.8587   9.2703   9.5102   9.6973  13.2653  14.1193
    14.1418  15.4307

          k = 0.3500 0.2500 0.3500 (  5057 PWs)   bands (ev):

   -46.1826 -22.5131 -22.4846 -22.4845  -6.5613  -6.3431  -6.1699  -4.8618
    -4.8384  -4.7150  -4.5898  -4.5245   3.1824   6.0351   6.0978   6.2354
     6.8479   7.3145   8.7624   9.4480   9.4898   9.7152  13.5397  13.8101
    13.9764  15.7898

          k =-0.2500 0.4500 0.3500 (  5063 PWs)   bands (ev):

   -46.1824 -22.5412 -22.4841 -22.4665  -6.6401  -6.3559  -5.9454  -4.8627
    -4.8291  -4.7312  -4.6070  -4.4804   3.3653   5.8052   5.8431   6.1863
     6.5908   7.2259   8.5413   9.3553   9.4663   9.9304  13.5631  14.0783
    14.2217  15.9049

          k = 0.4500 0.2500 0.3500 (  5063 PWs)   bands (ev):

   -46.1824 -22.5126 -22.4950 -22.4841  -6.4836  -6.3194  -6.2088  -4.8569
    -4.8215  -4.6716  -4.5604  -4.5260   3.1105   5.9524   6.0192   6.1098
     6.6830   7.3338   8.4525   9.4937   9.5118   9.8077  13.6887  13.8538
    14.1076  16.1603

          k = 0.4500 0.2500 0.4500 (  5070 PWs)   bands (ev):

   -46.1822 -22.5121 -22.4946 -22.4945  -6.3737  -6.3247  -6.2608  -4.8511
    -4.8003  -4.6175  -4.5322  -4.5249   3.0358   5.8636   6.0462   6.0505
     6.4141   7.2986   8.0674   9.5433   9.5438   9.9523  13.8731  13.9181
    14.1571  16.4957

          k =-0.3500 0.4500 0.3500 (  5056 PWs)   bands (ev):

   -46.1820 -22.5404 -22.4834 -22.4834  -6.5198  -6.3832  -5.9830  -4.8329
    -4.8191  -4.6709  -4.5232  -4.4520   3.4899   5.5340   5.6265   5.9847
     6.5314   6.7442   7.8902   9.6414   9.8186   9.9737  13.7792  14.1256
    14.2041  16.3549

          k = 0.4500 0.3500 0.4500 (  5051 PWs)   bands (ev):

   -46.1818 -22.5290 -22.4938 -22.4938  -6.3827  -6.3625  -6.1312  -4.8234
    -4.7981  -4.5921  -4.4654  -4.4564   3.3684   5.6022   5.6528   5.8235
     6.3951   6.6853   7.3131   9.9086   9.9213   9.9639  14.0298  14.0868
    14.1809  16.8866

     the Fermi energy is    10.4013 ev

!    total energy              =    -364.95993874 Ry
     Harris-Foulkes estimate   =    -364.95993874 Ry
     estimated scf accuracy    <          9.8E-11 Ry

     The total energy is the sum of the following terms:

     one-electron contribution =     -87.09973576 Ry
     hartree contribution      =      72.93911213 Ry
     xc contribution           =     -85.89332211 Ry
     ewald contribution        =    -264.91186465 Ry
     smearing contrib. (-TS)   =       0.00587164 Ry

     convergence has been achieved in   8 iterations

     Forces acting on atoms (cartesian axes, Ry/au):

     atom    1 type  1   force =     0.00000000    0.01918612    0.00000000
     atom    2 type  2   force =     0.00000000   -0.01948959    0.00000000
     atom    3 type  3   force =     0.00000000    0.00004448    0.00000000
     atom    4 type  3   force =     0.00000000    0.00021451    0.00000000
     atom    5 type  3   force =     0.00000000    0.00004448    0.00000000

     Total force =     0.000224     Total SCF correction =     0.000004


     Computing stress (Cartesian axis) and pressure

          total   stress  (Ry/bohr**3)                   (kbar)     P=   42.58
   0.00019838   0.00000000   0.00000000         29.18      0.00      0.00
   0.00000000   0.00047169   0.00000000          0.00     69.39      0.00
   0.00000000   0.00000000   0.00019838          0.00      0.00     29.18


     bfgs converged in  21 scf cycles and  20 bfgs steps
     (criteria: energy <  1.0E-04 Ry, force <  1.0E-03 Ry/Bohr)

     End of BFGS Geometry Optimization

     Final energy   =    -364.9599387427 Ry
Begin final coordinates

ATOMIC_POSITIONS (crystal)
Pb       0.000000000   0.000000000   0.000000000    0   0   0
Ti       0.500000000   0.560000000   0.500000000    0   0   0
O        0.500000000   0.613228074   0.000000000
O        0.500000000   0.106145808   0.500000000
O        0.000000000   0.613228074   0.500000000
End final coordinates



     Writing output data file PbTiO3.save/
 
     init_run     :      9.61s CPU     10.36s WALL (       1 calls)
     electrons    :   4392.06s CPU   4604.43s WALL (      21 calls)
     update_pot   :      5.71s CPU      5.94s WALL (      20 calls)
     forces       :     53.35s CPU     64.63s WALL (      21 calls)
     stress       :    236.10s CPU    266.02s WALL (      21 calls)

     Called by init_run:
     wfcinit      :      7.22s CPU      7.30s WALL (       1 calls)
     potinit      :      0.23s CPU      0.26s WALL (       1 calls)
     hinit0       :      1.31s CPU      1.39s WALL (       1 calls)

     Called by electrons:
     c_bands      :   3496.62s CPU   3523.55s WALL (     189 calls)
     sum_band     :    710.86s CPU    796.89s WALL (     189 calls)
     v_of_rho     :     42.80s CPU     44.94s WALL (     209 calls)
     newd         :    157.38s CPU    263.89s WALL (     209 calls)
     mix_rho      :      2.62s CPU      2.87s WALL (     189 calls)

     Called by c_bands:
     init_us_2    :     94.40s CPU     94.89s WALL (   31575 calls)
     cegterg      :   3232.53s CPU   3257.85s WALL (   14175 calls)

     Called by sum_band:
     sum_band:bec :      0.24s CPU      0.24s WALL (   14175 calls)
     addusdens    :    169.18s CPU    252.74s WALL (     189 calls)

     Called by *egterg:
     h_psi        :   2692.44s CPU   2698.76s WALL (   65267 calls)
     s_psi        :     84.34s CPU     84.73s WALL (   65267 calls)
     g_psi        :     31.79s CPU     31.93s WALL (   51017 calls)
     cdiaghg      :     92.30s CPU    107.99s WALL (   63617 calls)

     Called by h_psi:
     h_psi:pot    :   2681.78s CPU   2687.61s WALL (   65267 calls)
     h_psi:calbec :     83.77s CPU     83.97s WALL (   65267 calls)
     vloc_psi     :   2512.86s CPU   2518.38s WALL (   65267 calls)
     add_vuspsi   :     84.76s CPU     84.94s WALL (   65267 calls)

     General routines
     calbec       :    125.43s CPU    125.73s WALL (   87317 calls)
     fft          :     10.84s CPU     10.94s WALL (    3221 calls)
     ffts         :      0.43s CPU      0.44s WALL (     398 calls)
     fftw         :   2688.89s CPU   2694.75s WALL ( 2479216 calls)
     interpolate  :      1.15s CPU      1.21s WALL (     209 calls)
 
     Parallel routines
 
     PWSCF        :      1h18m CPU      1h23m WALL

 
   This run was terminated on:  20: 3: 8  13May2020            

=------------------------------------------------------------------------------=
   JOB DONE.
=------------------------------------------------------------------------------=
