
     Program PWSCF v.6.4.1 starts on 13May2020 at  0:13:32 

     This program is part of the open-source Quantum ESPRESSO suite
     for quantum simulation of materials; please cite
         "P. Giannozzi et al., J. Phys.:Condens. Matter 21 395502 (2009);
         "P. Giannozzi et al., J. Phys.:Condens. Matter 29 465901 (2017);
          URL http://www.quantum-espresso.org", 
     in publications or presentations arising from this work. More details at
     http://www.quantum-espresso.org/quote

     Parallel version (MPI & OpenMP), running on       1 processor cores
     Number of MPI processes:                 1
     Threads/MPI process:                     1

     MPI processes distributed on     1 nodes
     Reading input from PTO_7.49_10_0.405.pw.in
Warning: card  &CELL ignored
Warning: card   CELL_DYNAMICS = 'BFGS', ignored
Warning: card  / ignored

     Current dimensions of program PWSCF are:
     Max number of different atomic species (ntypx) = 10
     Max number of k-points (npk) =  40000
     Max angular momentum in pseudopotentials (lmaxx) =  3
     Message from routine read_upf::
     Pseudo file Pb.pbe-dn-rrkjus_psl.0.2.2.UPF has been fixed on the fly.
To avoid this message in the future, permanently fix 
 your pseudo files following these instructions: 
https://gitlab.com/QEF/q-e/blob/master/upftools/how_to_fix_upf.md
     Message from routine read_upf::
     Pseudo file O.pbe-n-rrkjus_psl.0.1.UPF has been fixed on the fly.
To avoid this message in the future, permanently fix 
 your pseudo files following these instructions: 
https://gitlab.com/QEF/q-e/blob/master/upftools/how_to_fix_upf.md
               file Pb.pbe-dn-rrkjus_psl.0.2.2.UPF: wavefunction(s)  6S renormalized

     Subspace diagonalization in iterative solution of the eigenvalue problem:
     a serial algorithm will be used

 
     G-vector sticks info
     --------------------
     sticks:   dense  smooth     PW     G-vecs:    dense   smooth      PW
     Sum        3569    1433    421               160467    40651    6235
 


     bravais-lattice index     =            1
     lattice parameter (alat)  =       7.4900  a.u.
     unit-cell volume          =     420.1897 (a.u.)^3
     number of atoms/cell      =            5
     number of atomic types    =            3
     number of electrons       =        44.00
     number of Kohn-Sham states=           26
     kinetic-energy cutoff     =      80.0000  Ry
     charge density cutoff     =     800.0000  Ry
     convergence threshold     =      1.0E-08
     mixing beta               =       0.7000
     number of iterations used =            8  plain     mixing
     Exchange-correlation      = PBE ( 1  4  3  4 0 0)
     nstep                     =           50


     celldm(1)=   7.490000  celldm(2)=   0.000000  celldm(3)=   0.000000
     celldm(4)=   0.000000  celldm(5)=   0.000000  celldm(6)=   0.000000

     crystal axes: (cart. coord. in units of alat)
               a(1) = (   1.000000   0.000000   0.000000 )  
               a(2) = (   0.000000   1.000000   0.000000 )  
               a(3) = (   0.000000   0.000000   1.000000 )  

     reciprocal axes: (cart. coord. in units 2 pi/alat)
               b(1) = (  1.000000  0.000000  0.000000 )  
               b(2) = (  0.000000  1.000000  0.000000 )  
               b(3) = (  0.000000  0.000000  1.000000 )  


     PseudoPot. # 1 for Pb read from file:
     ./Pb.pbe-dn-rrkjus_psl.0.2.2.UPF
     MD5 check sum: 7afc420059c37d6888fc09c0f121e83f
     Pseudo is Ultrasoft + core correction, Zval = 14.0
     Generated using "atomic" code by A. Dal Corso v.5.0.2 svn rev. 9415
     Using radial grid of 1281 points,  6 beta functions with: 
                l(1) =   0
                l(2) =   0
                l(3) =   1
                l(4) =   1
                l(5) =   2
                l(6) =   2
     Q(r) pseudized with 0 coefficients 


     PseudoPot. # 2 for Ti read from file:
     ./Ti.pbe-sp-van_ak.UPF
     MD5 check sum: 8e4df49b7f0d34bbd5052bf3f5ea0213
     Pseudo is Ultrasoft, Zval = 12.0
     Generated by new atomic code, or converted to UPF format
     Using radial grid of  851 points,  6 beta functions with: 
                l(1) =   0
                l(2) =   0
                l(3) =   1
                l(4) =   1
                l(5) =   2
                l(6) =   2
     Q(r) pseudized with  8 coefficients,  rinner =    1.000   1.000   1.000
                                                       1.000   1.000

     PseudoPot. # 3 for O  read from file:
     ./O.pbe-n-rrkjus_psl.0.1.UPF
     MD5 check sum: e057bbcf3229fb5d8c36c0c92f9568b4
     Pseudo is Ultrasoft + core correction, Zval =  6.0
     Generated using "atomic" code by A. Dal Corso v.5.0.2 svn rev. 9415
     Using radial grid of 1095 points,  4 beta functions with: 
                l(1) =   0
                l(2) =   0
                l(3) =   1
                l(4) =   1
     Q(r) pseudized with 0 coefficients 


     atomic species   valence    mass     pseudopotential
        Pb            14.00   207.20000     Pb( 1.00)
        Ti            12.00    47.87000     Ti( 1.00)
        O              6.00    16.00000     O ( 1.00)

      8 Sym. Ops. (no inversion) found



   Cartesian axes

     site n.     atom                  positions (alat units)
         1           Pb  tau(   1) = (   0.0000000   0.0000000   0.0000000  )
         2           Ti  tau(   2) = (   0.5000000   0.4050000   0.5000000  )
         3           O   tau(   3) = (   0.5000000   0.5000000   0.0000000  )
         4           O   tau(   4) = (   0.5000000   0.0000000   0.5000000  )
         5           O   tau(   5) = (   0.0000000   0.5000000   0.5000000  )

     number of k points=    75  Marzari-Vanderbilt smearing, width (Ry)=  0.0250
                       cart. coord. in units 2pi/alat
        k(    1) = (   0.0500000   0.0500000   0.0500000), wk =   0.0160000
        k(    2) = (   0.0500000   0.0500000   0.1500000), wk =   0.0320000
        k(    3) = (   0.0500000   0.0500000   0.2500000), wk =   0.0320000
        k(    4) = (   0.0500000   0.0500000   0.3500000), wk =   0.0320000
        k(    5) = (   0.0500000   0.0500000   0.4500000), wk =   0.0320000
        k(    6) = (   0.0500000   0.1500000   0.1500000), wk =   0.0320000
        k(    7) = (   0.0500000   0.1500000   0.2500000), wk =   0.0320000
        k(    8) = (   0.0500000   0.1500000   0.3500000), wk =   0.0320000
        k(    9) = (   0.0500000   0.1500000   0.4500000), wk =   0.0320000
        k(   10) = (   0.0500000   0.2500000   0.2500000), wk =   0.0320000
        k(   11) = (   0.0500000   0.2500000   0.3500000), wk =   0.0320000
        k(   12) = (   0.0500000   0.2500000   0.4500000), wk =   0.0320000
        k(   13) = (   0.0500000   0.3500000   0.3500000), wk =   0.0320000
        k(   14) = (   0.0500000   0.3500000   0.4500000), wk =   0.0320000
        k(   15) = (   0.0500000   0.4500000   0.4500000), wk =   0.0320000
        k(   16) = (   0.1500000   0.1500000   0.1500000), wk =   0.0160000
        k(   17) = (   0.1500000   0.1500000   0.2500000), wk =   0.0320000
        k(   18) = (   0.1500000   0.1500000   0.3500000), wk =   0.0320000
        k(   19) = (   0.1500000   0.1500000   0.4500000), wk =   0.0320000
        k(   20) = (   0.1500000   0.2500000   0.2500000), wk =   0.0320000
        k(   21) = (   0.1500000   0.2500000   0.3500000), wk =   0.0320000
        k(   22) = (   0.1500000   0.2500000   0.4500000), wk =   0.0320000
        k(   23) = (   0.1500000   0.3500000   0.3500000), wk =   0.0320000
        k(   24) = (   0.1500000   0.3500000   0.4500000), wk =   0.0320000
        k(   25) = (   0.1500000   0.4500000   0.4500000), wk =   0.0320000
        k(   26) = (   0.2500000   0.2500000   0.2500000), wk =   0.0160000
        k(   27) = (   0.2500000   0.2500000   0.3500000), wk =   0.0320000
        k(   28) = (   0.2500000   0.2500000   0.4500000), wk =   0.0320000
        k(   29) = (   0.2500000   0.3500000   0.3500000), wk =   0.0320000
        k(   30) = (   0.2500000   0.3500000   0.4500000), wk =   0.0320000
        k(   31) = (   0.2500000   0.4500000   0.4500000), wk =   0.0320000
        k(   32) = (   0.3500000   0.3500000   0.3500000), wk =   0.0160000
        k(   33) = (   0.3500000   0.3500000   0.4500000), wk =   0.0320000
        k(   34) = (   0.3500000   0.4500000   0.4500000), wk =   0.0320000
        k(   35) = (   0.4500000   0.4500000   0.4500000), wk =   0.0160000
        k(   36) = (  -0.0500000   0.1500000   0.0500000), wk =   0.0160000
        k(   37) = (  -0.0500000   0.2500000   0.0500000), wk =   0.0160000
        k(   38) = (  -0.0500000   0.3500000   0.0500000), wk =   0.0160000
        k(   39) = (  -0.0500000   0.4500000   0.0500000), wk =   0.0160000
        k(   40) = (   0.1500000   0.0500000   0.1500000), wk =   0.0160000
        k(   41) = (  -0.0500000   0.2500000   0.1500000), wk =   0.0320000
        k(   42) = (   0.2500000   0.0500000   0.1500000), wk =   0.0320000
        k(   43) = (  -0.0500000   0.3500000   0.1500000), wk =   0.0320000
        k(   44) = (   0.3500000   0.0500000   0.1500000), wk =   0.0320000
        k(   45) = (  -0.0500000   0.4500000   0.1500000), wk =   0.0320000
        k(   46) = (   0.4500000   0.0500000   0.1500000), wk =   0.0320000
        k(   47) = (   0.2500000   0.0500000   0.2500000), wk =   0.0160000
        k(   48) = (  -0.0500000   0.3500000   0.2500000), wk =   0.0320000
        k(   49) = (   0.3500000   0.0500000   0.2500000), wk =   0.0320000
        k(   50) = (  -0.0500000   0.4500000   0.2500000), wk =   0.0320000
        k(   51) = (   0.4500000   0.0500000   0.2500000), wk =   0.0320000
        k(   52) = (   0.3500000   0.0500000   0.3500000), wk =   0.0160000
        k(   53) = (  -0.0500000   0.4500000   0.3500000), wk =   0.0320000
        k(   54) = (   0.4500000   0.0500000   0.3500000), wk =   0.0320000
        k(   55) = (   0.4500000   0.0500000   0.4500000), wk =   0.0160000
        k(   56) = (  -0.1500000   0.2500000   0.1500000), wk =   0.0160000
        k(   57) = (  -0.1500000   0.3500000   0.1500000), wk =   0.0160000
        k(   58) = (  -0.1500000   0.4500000   0.1500000), wk =   0.0160000
        k(   59) = (   0.2500000   0.1500000   0.2500000), wk =   0.0160000
        k(   60) = (  -0.1500000   0.3500000   0.2500000), wk =   0.0320000
        k(   61) = (   0.3500000   0.1500000   0.2500000), wk =   0.0320000
        k(   62) = (  -0.1500000   0.4500000   0.2500000), wk =   0.0320000
        k(   63) = (   0.4500000   0.1500000   0.2500000), wk =   0.0320000
        k(   64) = (   0.3500000   0.1500000   0.3500000), wk =   0.0160000
        k(   65) = (  -0.1500000   0.4500000   0.3500000), wk =   0.0320000
        k(   66) = (   0.4500000   0.1500000   0.3500000), wk =   0.0320000
        k(   67) = (   0.4500000   0.1500000   0.4500000), wk =   0.0160000
        k(   68) = (  -0.2500000   0.3500000   0.2500000), wk =   0.0160000
        k(   69) = (  -0.2500000   0.4500000   0.2500000), wk =   0.0160000
        k(   70) = (   0.3500000   0.2500000   0.3500000), wk =   0.0160000
        k(   71) = (  -0.2500000   0.4500000   0.3500000), wk =   0.0320000
        k(   72) = (   0.4500000   0.2500000   0.3500000), wk =   0.0320000
        k(   73) = (   0.4500000   0.2500000   0.4500000), wk =   0.0160000
        k(   74) = (  -0.3500000   0.4500000   0.3500000), wk =   0.0160000
        k(   75) = (   0.4500000   0.3500000   0.4500000), wk =   0.0160000

     Dense  grid:   160467 G-vectors     FFT dimensions: (  72,  72,  72)

     Smooth grid:    40651 G-vectors     FFT dimensions: (  45,  45,  45)

     Estimated max dynamical RAM per process >     759.22 MB

     Check: negative core charge=   -0.000006

     Initial potential from superposition of free atoms

     starting charge   42.99760, renormalised to   44.00000
     Starting wfcs are   31 randomized atomic wfcs

     total cpu time spent up to now is       11.6 secs

     Self-consistent Calculation

     iteration #  1     ecut=    80.00 Ry     beta= 0.70
     Davidson diagonalization with overlap
     ethr =  1.00E-02,  avg # of iterations =  2.1

     total cpu time spent up to now is       31.9 secs

     total energy              =    -364.40118324 Ry
     Harris-Foulkes estimate   =    -365.25421261 Ry
     estimated scf accuracy    <       1.07673748 Ry

     iteration #  2     ecut=    80.00 Ry     beta= 0.70
     Davidson diagonalization with overlap
     ethr =  2.45E-03,  avg # of iterations =  4.1

     total cpu time spent up to now is       59.2 secs

     total energy              =    -363.99318013 Ry
     Harris-Foulkes estimate   =    -365.46670194 Ry
     estimated scf accuracy    <       4.16691554 Ry

     iteration #  3     ecut=    80.00 Ry     beta= 0.70
     Davidson diagonalization with overlap
     ethr =  2.45E-03,  avg # of iterations =  4.2

     total cpu time spent up to now is       85.4 secs

     total energy              =    -364.87386315 Ry
     Harris-Foulkes estimate   =    -365.01426128 Ry
     estimated scf accuracy    <       0.38409700 Ry

     iteration #  4     ecut=    80.00 Ry     beta= 0.70
     Davidson diagonalization with overlap
     ethr =  8.73E-04,  avg # of iterations =  4.0

     total cpu time spent up to now is      106.1 secs

     total energy              =    -364.88531490 Ry
     Harris-Foulkes estimate   =    -364.90762082 Ry
     estimated scf accuracy    <       0.06510652 Ry

     iteration #  5     ecut=    80.00 Ry     beta= 0.70
     Davidson diagonalization with overlap
     ethr =  1.48E-04,  avg # of iterations =  4.8

     total cpu time spent up to now is      132.4 secs

     total energy              =    -364.90645728 Ry
     Harris-Foulkes estimate   =    -364.90728439 Ry
     estimated scf accuracy    <       0.00394421 Ry

     iteration #  6     ecut=    80.00 Ry     beta= 0.70
     Davidson diagonalization with overlap
     ethr =  8.96E-06,  avg # of iterations =  2.8

     total cpu time spent up to now is      153.5 secs

     total energy              =    -364.90637290 Ry
     Harris-Foulkes estimate   =    -364.90693418 Ry
     estimated scf accuracy    <       0.00159824 Ry

     iteration #  7     ecut=    80.00 Ry     beta= 0.70
     Davidson diagonalization with overlap
     ethr =  3.63E-06,  avg # of iterations =  4.0

     total cpu time spent up to now is      175.9 secs

     total energy              =    -364.90666788 Ry
     Harris-Foulkes estimate   =    -364.90670131 Ry
     estimated scf accuracy    <       0.00007689 Ry

     iteration #  8     ecut=    80.00 Ry     beta= 0.70
     Davidson diagonalization with overlap
     ethr =  1.75E-07,  avg # of iterations =  3.1

     total cpu time spent up to now is      199.7 secs

     total energy              =    -364.90668540 Ry
     Harris-Foulkes estimate   =    -364.90669146 Ry
     estimated scf accuracy    <       0.00001652 Ry

     iteration #  9     ecut=    80.00 Ry     beta= 0.70
     Davidson diagonalization with overlap
     ethr =  3.75E-08,  avg # of iterations =  3.0

     total cpu time spent up to now is      221.8 secs

     total energy              =    -364.90668879 Ry
     Harris-Foulkes estimate   =    -364.90668904 Ry
     estimated scf accuracy    <       0.00000057 Ry

     iteration # 10     ecut=    80.00 Ry     beta= 0.70
     Davidson diagonalization with overlap
     ethr =  1.30E-09,  avg # of iterations =  3.0

     total cpu time spent up to now is      248.1 secs

     total energy              =    -364.90668903 Ry
     Harris-Foulkes estimate   =    -364.90668907 Ry
     estimated scf accuracy    <       0.00000008 Ry

     iteration # 11     ecut=    80.00 Ry     beta= 0.70
     Davidson diagonalization with overlap
     ethr =  1.83E-10,  avg # of iterations =  2.9

     total cpu time spent up to now is      270.2 secs

     End of self-consistent calculation

          k = 0.0500 0.0500 0.0500 (  5047 PWs)   bands (ev):

   -45.6250 -22.4321 -21.8350 -21.8350  -7.2688  -6.2239  -5.9581  -5.1807
    -5.1122  -5.1120  -4.9746  -4.9035   4.3112   6.6288   6.7458   7.1719
     7.8827   7.9063   8.6799   9.1333   9.6072   9.6970  12.8501  14.2826
    14.3701  15.2536

          k = 0.0500 0.0500 0.1500 (  5074 PWs)   bands (ev):

   -45.6248 -22.4316 -21.8454 -21.8346  -7.2042  -6.1809  -5.9319  -5.1879
    -5.1205  -5.1117  -4.9994  -4.9124   4.0132   6.6931   6.9892   7.2697
     7.7276   7.9093   8.7371   9.1314   9.3725   9.6778  13.1318  14.0617
    14.3529  15.5642

          k = 0.0500 0.0500 0.2500 (  5093 PWs)   bands (ev):

   -45.6244 -22.4308 -21.8621 -21.8340  -7.0980  -6.1019  -5.8917  -5.1992
    -5.1355  -5.1112  -5.0522  -4.9201   3.6397   6.8463   7.0063   7.3456
     7.8160   7.9234   8.7581   9.0530   9.1297   9.6693  13.5351  14.0826
    14.3406  15.0418

          k = 0.0500 0.0500 0.3500 (  5090 PWs)   bands (ev):

   -45.6241 -22.4300 -21.8787 -21.8334  -6.9897  -6.0028  -5.8595  -5.2097
    -5.1614  -5.1108  -5.1075  -4.9269   3.3407   6.7542   7.0720   7.4666
     7.8773   8.0545   8.6042   8.8160   9.0544   9.9463  13.8649  13.9546
    14.3525  14.4244

          k = 0.0500 0.0500 0.4500 (  5073 PWs)   bands (ev):

   -45.6238 -22.4296 -21.8889 -21.8331  -6.9218  -5.9117  -5.8604  -5.2142
    -5.1994  -5.1297  -5.1102  -4.9321   3.1805   6.5872   7.2820   7.4778
     7.9394   8.1409   8.3884   8.6384   9.0363  10.3286  13.2297  14.1083
    14.3943  14.6167

          k = 0.0500 0.1500 0.1500 (  5079 PWs)   bands (ev):

   -45.6245 -22.4426 -21.8449 -21.8342  -7.0961  -6.1742  -5.8988  -5.1875
    -5.1339  -5.1184  -4.9897  -4.9390   3.7772   6.6120   6.7845   7.3495
     7.7437   7.9313   8.6958   9.1307   9.4577   9.7513  13.1272  14.2134
    14.5073  15.5786

          k = 0.0500 0.1500 0.2500 (  5077 PWs)   bands (ev):

   -45.6242 -22.4418 -21.8615 -21.8336  -6.9935  -6.1048  -5.8707  -5.1990
    -5.1524  -5.1182  -5.0166  -4.9345   3.4825   6.7183   6.8534   7.3270
     7.7805   7.9560   8.5681   9.0974   9.1770   9.8428  13.5169  14.2179
    14.4881  15.0414

          k = 0.0500 0.1500 0.3500 (  5080 PWs)   bands (ev):

   -45.6238 -22.4409 -21.8781 -21.8330  -6.8895  -6.0256  -5.8470  -5.2094
    -5.1743  -5.1181  -5.0352  -4.9402   3.2323   6.6628   6.9741   7.3225
     7.7611   8.0576   8.5330   8.8013   9.0701  10.0305  13.8417  14.1048
    14.4587  14.5956

          k = 0.0500 0.1500 0.4500 (  5079 PWs)   bands (ev):

   -45.6236 -22.4404 -21.8883 -21.8326  -6.8245  -5.9682  -5.8372  -5.2129
    -5.1949  -5.1180  -5.0373  -4.9518   3.0943   6.5423   7.1398   7.3387
     7.6803   8.1107   8.4818   8.7686   8.9266  10.1897  13.6101  14.0656
    14.5554  14.6775

          k = 0.0500 0.2500 0.2500 (  5076 PWs)   bands (ev):

   -45.6238 -22.4594 -21.8607 -21.8328  -6.8112  -6.1251  -5.8243  -5.1984
    -5.1688  -5.1255  -5.0006  -4.9368   3.2396   6.4260   6.7054   7.2372
     7.6728   7.9757   8.4990   9.1498   9.2734  10.0550  13.4808  14.3931
    14.7138  15.0395

          k = 0.0500 0.2500 0.3500 (  5080 PWs)   bands (ev):

   -45.6235 -22.4584 -21.8772 -21.8322  -6.7179  -6.0830  -5.7956  -5.2083
    -5.1759  -5.1269  -5.0050  -4.9129   3.0590   6.4059   6.8389   7.1335
     7.6339   8.0469   8.3636   8.8797   9.1820  10.0626  13.7856  14.3528
    14.6688  14.8830

          k = 0.0500 0.2500 0.4500 (  5084 PWs)   bands (ev):

   -45.6232 -22.4579 -21.8873 -21.8318  -6.6605  -6.0632  -5.7679  -5.2117
    -5.1857  -5.1281  -4.9956  -4.9088   2.9557   6.3652   6.9391   7.1547
     7.3731   8.2419   8.4335   8.6548   9.0736  10.0185  13.9668  14.2209
    14.7551  14.8387

          k = 0.0500 0.3500 0.3500 (  5079 PWs)   bands (ev):

   -45.6231 -22.4759 -21.8763 -21.8314  -6.5257  -6.1543  -5.7251  -5.2074
    -5.1870  -5.1284  -5.0339  -4.8429   2.8890   6.0246   6.7039   7.0415
     7.6219   7.9219   8.3893   8.9623   9.1491  10.0927  13.7247  14.5628
    14.9587  15.1951

          k = 0.0500 0.3500 0.4500 (  5079 PWs)   bands (ev):

   -45.6229 -22.4753 -21.8864 -21.8311  -6.4844  -6.1483  -5.6850  -5.2107
    -5.1881  -5.1303  -5.0390  -4.8053   2.8190   6.0029   6.7845   6.9606
     7.4549   8.1023   8.4310   8.7201   8.9307  10.0467  13.8742  14.7324
    14.8931  15.1337

          k = 0.0500 0.4500 0.4500 (  5100 PWs)   bands (ev):

   -45.6227 -22.4859 -21.8858 -21.8306  -6.3588  -6.2083  -5.6238  -5.2103
    -5.2012  -5.1270  -5.0688  -4.7466   2.7358   5.7287   6.6931   6.9071
     7.6245   7.9231   8.5204   8.6264   8.7963  10.1448  13.8063  14.8403
    15.1418  15.3823

          k = 0.1500 0.1500 0.1500 (  5095 PWs)   bands (ev):

   -45.6243 -22.4421 -21.8446 -21.8443  -7.0408  -6.1379  -5.8793  -5.1910
    -5.1413  -5.1203  -4.9946  -4.9360   3.6380   6.4764   6.8508   7.3934
     7.8122   7.8414   8.5843   9.1904   9.4866   9.7084  13.3075  14.1469
    14.3467  15.7035

          k = 0.1500 0.1500 0.2500 (  5084 PWs)   bands (ev):

   -45.6240 -22.4413 -21.8611 -21.8438  -6.9530  -6.0725  -5.8497  -5.1936
    -5.1516  -5.1204  -5.0083  -4.9338   3.4217   6.4666   6.8022   7.2773
     7.7217   7.9812   8.5162   9.2413   9.3425   9.7968  13.5486  14.1527
    14.2815  15.1119

          k = 0.1500 0.1500 0.3500 (  5082 PWs)   bands (ev):

   -45.6236 -22.4405 -21.8776 -21.8432  -6.8682  -5.9955  -5.8244  -5.1931
    -5.1551  -5.1219  -5.0236  -4.9396   3.2191   6.5377   6.6881   7.0986
     7.6694   8.0600   8.6080   9.0831   9.2189   9.9686  13.6655  14.0863
    14.4412  14.7533

          k = 0.1500 0.1500 0.4500 (  5084 PWs)   bands (ev):

   -45.6234 -22.4400 -21.8878 -21.8428  -6.8176  -5.9386  -5.8137  -5.1885
    -5.1567  -5.1256  -5.0282  -4.9513   3.1013   6.5172   6.7317   6.9047
     7.6933   8.1282   8.6010   9.0190   9.1310  10.0634  13.6126  14.0585
    14.6111  14.6833

          k = 0.1500 0.2500 0.2500 (  5081 PWs)   bands (ev):

   -45.6236 -22.4588 -21.8603 -21.8431  -6.7735  -6.0970  -5.8302  -5.1920
    -5.1757  -5.1067  -4.9841  -4.9168   3.2434   6.2116   6.5599   7.1081
     7.7481   7.9378   8.3714   9.2597   9.5191   9.9344  13.4206  14.3568
    14.4451  15.1012

          k = 0.1500 0.2500 0.3500 (  5080 PWs)   bands (ev):

   -45.6232 -22.4580 -21.8767 -21.8424  -6.6980  -6.0575  -5.8070  -5.1898
    -5.1656  -5.1094  -4.9767  -4.8961   3.1146   6.2369   6.5280   6.9104
     7.4467   8.1133   8.4525   9.1623   9.3164   9.9240  13.6084  14.3009
    14.5549  15.0725

          k = 0.1500 0.2500 0.4500 (  5077 PWs)   bands (ev):

   -45.6230 -22.4574 -21.8869 -21.8420  -6.6539  -6.0404  -5.7814  -5.1831
    -5.1542  -5.1211  -4.9605  -4.8951   3.0348   6.2678   6.5660   6.7252
     7.2662   8.2209   8.6572   8.9327   9.2031   9.8653  13.8652  14.1546
    14.7232  15.0171

          k = 0.1500 0.3500 0.3500 (  5081 PWs)   bands (ev):

   -45.6229 -22.4754 -21.8758 -21.8416  -6.5066  -6.1337  -5.7821  -5.1926
    -5.1678  -5.0818  -4.9813  -4.8259   2.9960   5.9091   6.3483   6.8172
     7.3586   8.0572   8.3391   9.0819   9.4472   9.8906  13.6374  14.5546
    14.7200  15.3802

          k = 0.1500 0.3500 0.4500 (  5079 PWs)   bands (ev):

   -45.6227 -22.4748 -21.8859 -21.8412  -6.4744  -6.1362  -5.7478  -5.1859
    -5.1485  -5.0981  -4.9715  -4.7893   2.9549   5.9039   6.4102   6.7270
     7.0289   8.2658   8.4066   8.7530   9.3081   9.8976  13.8797  14.5622
    14.7855  15.4064

          k = 0.1500 0.4500 0.4500 (  5073 PWs)   bands (ev):

   -45.6224 -22.4854 -21.8853 -21.8408  -6.3295  -6.2205  -5.7276  -5.1884
    -5.1431  -5.0734  -4.9887  -4.7292   2.8997   5.6555   6.2633   6.8296
     7.0133   8.0443   8.3488   8.6075   9.3540   9.9923  13.9064  14.8085
    14.8589  15.6708

          k = 0.2500 0.2500 0.2500 (  5070 PWs)   bands (ev):

   -45.6232 -22.4580 -21.8598 -21.8594  -6.7210  -6.0472  -5.8350  -5.1770
    -5.1713  -5.0861  -4.9617  -4.8878   3.2325   5.9899   6.4215   6.8689
     7.6807   7.7943   8.3904   9.3822   9.6672   9.8279  13.3501  14.3705
    14.3838  15.1878

          k = 0.2500 0.2500 0.3500 (  5072 PWs)   bands (ev):

   -45.6229 -22.4572 -21.8760 -21.8589  -6.6792  -6.0006  -5.8248  -5.1702
    -5.1432  -5.0703  -4.9366  -4.8689   3.1999   5.9217   6.2466   6.6591
     7.4141   7.7635   8.4993   9.3424   9.5110   9.9321  13.4926  14.3198
    14.5443  15.3280

          k = 0.2500 0.2500 0.4500 (  5073 PWs)   bands (ev):

   -45.6227 -22.4567 -21.8861 -21.8585  -6.6584  -5.9809  -5.8038  -5.1644
    -5.1208  -5.0628  -4.9110  -4.8700   3.1694   5.9679   6.1274   6.4730
     7.2740   7.7925   8.5137   9.2158   9.4621   9.9592  13.8254  14.1501
    14.7129  15.4060

          k = 0.2500 0.3500 0.3500 (  5057 PWs)   bands (ev):

   -45.6225 -22.4745 -21.8751 -21.8581  -6.4982  -6.0763  -5.8550  -5.1718
    -5.1281  -5.0396  -4.8895  -4.7937   3.1857   5.6297   6.1329   6.4057
     7.2578   7.7321   8.1252   9.2835   9.6505   9.9400  13.6537  14.5412
    14.6690  15.6364

          k = 0.2500 0.3500 0.4500 (  5063 PWs)   bands (ev):

   -45.6223 -22.4740 -21.8852 -21.8577  -6.4877  -6.0785  -5.8290  -5.1632
    -5.0966  -5.0437  -4.8629  -4.7600   3.2123   5.6325   6.0858   6.2411
     7.0084   7.7732   7.9257   9.1732   9.7327   9.9429  13.9643  14.4567
    14.7745  15.8087

          k = 0.2500 0.4500 0.4500 (  5070 PWs)   bands (ev):

   -45.6221 -22.4846 -21.8846 -21.8572  -6.3641  -6.1486  -5.8442  -5.1619
    -5.0806  -5.0292  -4.8366  -4.6970   3.2237   5.4328   6.0030   6.2716
     6.9159   7.3778   7.8051   9.1377   9.8598   9.9538  14.0812  14.6995
    14.8326  16.0782

          k = 0.3500 0.3500 0.3500 (  5055 PWs)   bands (ev):

   -45.6222 -22.4737 -21.8745 -21.8743  -6.5084  -6.0099  -5.9028  -5.1502
    -5.1002  -4.9921  -4.8097  -4.7542   3.4001   5.4132   5.8465   6.2147
     7.1431   7.3920   7.6863   9.4947   9.5967  10.2162  13.8778  14.6355
    14.6367  15.9339

          k = 0.3500 0.3500 0.4500 (  5056 PWs)   bands (ev):

   -45.6220 -22.4732 -21.8845 -21.8740  -6.5197  -5.9957  -5.8954  -5.1383
    -5.0858  -4.9586  -4.7661  -4.7261   3.5462   5.3624   5.6164   6.1332
     6.9826   7.2834   7.3551   9.5044   9.6869  10.3286  14.1811  14.5325
    14.7567  16.2041

          k = 0.3500 0.4500 0.4500 (  5051 PWs)   bands (ev):

   -45.6217 -22.4838 -21.8840 -21.8735  -6.4179  -6.0501  -5.9331  -5.1367
    -5.0695  -4.9416  -4.7100  -4.6594   3.6895   5.1756   5.7594   5.9196
     6.5443   6.8898   7.3425   9.5507   9.7926  10.3348  14.3297  14.7265
    14.8405  16.4927

          k = 0.4500 0.4500 0.4500 (  5034 PWs)   bands (ev):

   -45.6215 -22.4833 -21.8835 -21.8835  -6.4502  -5.9911  -5.9771  -5.1225
    -5.0637  -4.8874  -4.6401  -4.6321   4.2004   5.0421   5.3135   5.8732
     6.0218   6.7574   7.1596   9.7517   9.7695  10.5048  14.5529  14.8091
    14.8168  16.8171

          k =-0.0500 0.1500 0.0500 (  5074 PWs)   bands (ev):

   -45.6248 -22.4431 -21.8346 -21.8345  -7.1588  -6.2136  -5.9173  -5.1801
    -5.1215  -5.1184  -4.9724  -4.9454   3.9919   6.5772   6.6585   7.2384
     7.8935   7.9282   8.7396   9.0928   9.6732   9.7373  12.8518  14.4258
    14.5247  15.2708

          k =-0.0500 0.2500 0.0500 (  5093 PWs)   bands (ev):

   -45.6244 -22.4608 -21.8338 -21.8338  -6.9634  -6.2093  -5.8419  -5.1793
    -5.1399  -5.1276  -5.0191  -4.9712   3.5716   6.4902   6.5410   6.9673
     7.9263   7.9778   9.0245   9.1684   9.8026   9.8077  12.8542  14.6552
    14.7751  15.3055

          k =-0.0500 0.3500 0.0500 (  5090 PWs)   bands (ev):

   -45.6240 -22.4784 -21.8331 -21.8331  -6.7275  -6.2387  -5.7472  -5.1784
    -5.1776  -5.1352  -5.0928  -4.9732   3.2209   6.3349   6.4017   6.6613
     7.9846   8.0405   8.9553   9.6038   9.8675  10.1444  12.8551  14.3645
    14.8718  15.0480

          k =-0.0500 0.4500 0.0500 (  5073 PWs)   bands (ev):

   -45.6238 -22.4893 -21.8326 -21.8326  -6.5065  -6.3283  -5.6684  -5.2372
    -5.1778  -5.1390  -5.1224  -4.9763   3.0273   6.1179   6.3469   6.5519
     8.0294   8.0840   8.9129   9.7397   9.9079  10.6270  12.8520  13.6100
    14.9877  15.2143

          k = 0.1500 0.0500 0.1500 (  5079 PWs)   bands (ev):

   -45.6245 -22.4311 -21.8451 -21.8448  -7.1473  -6.1406  -5.9034  -5.1915
    -5.1208  -5.1190  -5.0065  -4.9286   3.8125   6.6110   7.1082   7.3587
     7.7422   7.8127   8.7052   9.1918   9.2895   9.6870  13.3335  14.0019
    14.1874  15.9813

          k =-0.0500 0.2500 0.1500 (  5077 PWs)   bands (ev):

   -45.6242 -22.4603 -21.8441 -21.8334  -6.9052  -6.1758  -5.8381  -5.1868
    -5.1584  -5.1256  -4.9865  -4.9767   3.4384   6.4407   6.5993   7.1643
     7.7356   7.9830   8.8585   9.1231   9.5800   9.9450  13.1167  14.4489
    14.7514  15.3327

          k = 0.2500 0.0500 0.1500 (  5077 PWs)   bands (ev):

   -45.6242 -22.4304 -21.8616 -21.8443  -7.0563  -6.0647  -5.8592  -5.1940
    -5.1331  -5.1190  -5.0389  -4.9425   3.5257   6.6497   7.0141   7.3766
     7.6928   7.8696   8.7356   9.1776   9.2687   9.6887  13.6257  14.0251
    14.1493  15.1854

          k =-0.0500 0.3500 0.1500 (  5080 PWs)   bands (ev):

   -45.6238 -22.4778 -21.8433 -21.8327  -6.6769  -6.2094  -5.7647  -5.1958
    -5.1858  -5.1303  -5.0182  -4.9817   3.1379   6.1833   6.4425   6.9327
     7.7761   8.0528   9.0008   9.1683   9.6748  10.2505  13.0989  14.4479
    14.7774  15.0425

          k = 0.3500 0.0500 0.1500 (  5080 PWs)   bands (ev):

   -45.6238 -22.4296 -21.8782 -21.8437  -6.9676  -5.9666  -5.8224  -5.1934
    -5.1467  -5.1186  -5.0902  -4.9496   3.2752   6.7227   6.8176   7.3138
     7.7624   7.9287   8.6699   9.0562   9.2507   9.9444  13.7182  14.0087
    14.3612  14.5461

          k =-0.0500 0.4500 0.1500 (  5079 PWs)   bands (ev):

   -45.6236 -22.4886 -21.8428 -21.8322  -6.4661  -6.2966  -5.7087  -5.2328
    -5.1853  -5.1340  -5.0274  -4.9914   2.9667   5.9739   6.3575   6.8212
     7.8173   8.1015   9.0103   9.2650   9.7261  10.4922  13.0797  14.0222
    14.8878  15.1940

          k = 0.4500 0.0500 0.1500 (  5079 PWs)   bands (ev):

   -45.6236 -22.4291 -21.8884 -21.8433  -6.9143  -5.8745  -5.8209  -5.1947
    -5.1582  -5.1239  -5.1178  -4.9549   3.1349   6.5817   6.9421   7.1543
     7.8756   8.0898   8.3834   9.0047   9.2477  10.2385  13.3650  14.1226
    14.3798  14.6250

          k = 0.2500 0.0500 0.2500 (  5076 PWs)   bands (ev):

   -45.6238 -22.4296 -21.8612 -21.8607  -6.9944  -5.9907  -5.8069  -5.1799
    -5.1336  -5.1279  -5.0303  -4.9762   3.3422   6.5394   6.9095   7.2957
     7.4833   7.8377   8.8729   9.2433   9.3851   9.7401  13.7016  14.0564
    14.1491  15.0990

          k =-0.0500 0.3500 0.2500 (  5080 PWs)   bands (ev):

   -45.6235 -22.4769 -21.8598 -21.8321  -6.5986  -6.1735  -5.7636  -5.1989
    -5.1919  -5.1284  -5.0163  -4.9145   3.0095   6.0764   6.5635   7.1284
     7.5744   8.0465   8.5784   9.1550   9.3566  10.2050  13.4400  14.4648
    14.9297  15.1045

          k = 0.3500 0.0500 0.2500 (  5080 PWs)   bands (ev):

   -45.6235 -22.4289 -21.8774 -21.8602  -6.9402  -5.8913  -5.7595  -5.1682
    -5.1371  -5.1275  -5.0538  -4.9910   3.1631   6.5401   6.7053   7.0392
     7.4479   7.9663   8.8134   9.1874   9.4396   9.9737  13.6862  14.1075
    14.3705  14.8128

          k =-0.0500 0.4500 0.2500 (  5084 PWs)   bands (ev):

   -45.6232 -22.4876 -21.8593 -21.8316  -6.4097  -6.2574  -5.7177  -5.2189
    -5.1962  -5.1317  -5.0230  -4.9009   2.8729   5.8402   6.4743   7.0539
     7.5518   8.1109   8.6823   9.1103   9.4033  10.2572  13.4179  14.4765
    15.0397  15.1876

          k = 0.4500 0.0500 0.2500 (  5084 PWs)   bands (ev):

   -45.6233 -22.4284 -21.8876 -21.8598  -6.9106  -5.7982  -5.7486  -5.1735
    -5.1328  -5.1294  -5.0701  -4.9977   3.0559   6.5406   6.6196   6.8261
     7.4700   8.1833   8.5337   9.2342   9.4124  10.1698  13.6000  14.1393
    14.6213  14.6559

          k = 0.3500 0.0500 0.3500 (  5079 PWs)   bands (ev):

   -45.6231 -22.4281 -21.8768 -21.8765  -6.9223  -5.7903  -5.6956  -5.1520
    -5.1431  -5.1192  -5.0395  -5.0159   3.0456   6.4293   6.5553   6.7648
     7.2522   8.1188   8.9103   8.9934   9.5173  10.1649  13.8008  14.2603
    14.3700  15.0324

          k =-0.0500 0.4500 0.3500 (  5079 PWs)   bands (ev):

   -45.6229 -22.4866 -21.8757 -21.8310  -6.3701  -6.2289  -5.6724  -5.2100
    -5.2017  -5.1288  -5.0522  -4.8008   2.7858   5.7622   6.6128   7.0266
     7.5852   7.9265   8.4611   8.9327   9.0765  10.1358  13.6857  14.7012
    15.1608  15.3958

          k = 0.4500 0.0500 0.3500 (  5079 PWs)   bands (ev):

   -45.6229 -22.4277 -21.8868 -21.8762  -6.9153  -5.7016  -5.6667  -5.1545
    -5.1405  -5.1245  -5.0559  -4.9988   2.9713   6.4215   6.4276   6.5568
     7.2099   8.3041   8.6889   9.0350   9.4563  10.3392  13.9388  14.1938
    14.5517  15.0553

          k = 0.4500 0.0500 0.4500 (  5100 PWs)   bands (ev):

   -45.6227 -22.4272 -21.8863 -21.8862  -6.9214  -5.6267  -5.6140  -5.1481
    -5.1374  -5.1209  -5.1016  -4.9595   2.9166   6.3120   6.3481   6.3899
     7.1217   8.4431   8.7979   8.8074   9.3525  10.5269  14.1738  14.3710
    14.3986  15.3180

          k =-0.1500 0.2500 0.1500 (  5084 PWs)   bands (ev):

   -45.6240 -22.4597 -21.8438 -21.8436  -6.8537  -6.1448  -5.8378  -5.1897
    -5.1733  -5.1133  -4.9838  -4.9518   3.3671   6.2883   6.5792   7.2790
     7.7337   7.9048   8.6073   9.1771   9.7474   9.8274  13.2485  14.3948
    14.5414  15.2116

          k =-0.1500 0.3500 0.1500 (  5082 PWs)   bands (ev):

   -45.6236 -22.4773 -21.8430 -21.8428  -6.6319  -6.1813  -5.7923  -5.2051
    -5.1880  -5.0938  -4.9852  -4.9718   3.1110   6.1238   6.2454   7.1651
     7.6906   7.9826   8.7021   9.1538   9.7910  10.1244  13.1738  14.5212
    14.6602  15.0351

          k =-0.1500 0.4500 0.1500 (  5084 PWs)   bands (ev):

   -45.6234 -22.4880 -21.8425 -21.8424  -6.4296  -6.2661  -5.7616  -5.2252
    -5.1869  -5.0700  -4.9976  -4.9863   2.9596   6.0063   6.0307   7.1068
     7.7151   8.0261   8.7765   9.1358   9.8201  10.2503  13.1375  14.4221
    14.8352  15.0622

          k = 0.2500 0.1500 0.2500 (  5081 PWs)   bands (ev):

   -45.6236 -22.4405 -21.8606 -21.8602  -6.8940  -6.0099  -5.8174  -5.1787
    -5.1570  -5.1135  -5.0008  -4.9359   3.3092   6.2947   6.6585   7.1250
     7.5858   7.9219   8.6165   9.3101   9.5311   9.7724  13.5220  14.1603
    14.2618  15.0680

          k =-0.1500 0.3500 0.2500 (  5080 PWs)   bands (ev):

   -45.6232 -22.4763 -21.8594 -21.8423  -6.5652  -6.1468  -5.8074  -5.1999
    -5.1843  -5.0780  -4.9864  -4.8945   3.0579   5.9661   6.2783   7.0354
     7.7494   7.8698   8.3576   9.2479   9.6406   9.9829  13.3615  14.4976
    14.6923  15.1987

          k = 0.3500 0.1500 0.2500 (  5080 PWs)   bands (ev):

   -45.6233 -22.4397 -21.8769 -21.8597  -6.8434  -5.9318  -5.7890  -5.1696
    -5.1483  -5.0991  -5.0027  -4.9437   3.1846   6.2621   6.4948   6.8588
     7.5107   7.9256   8.7307   9.2371   9.4397   9.9550  13.5384  14.1549
    14.4486  15.0218

          k =-0.1500 0.4500 0.2500 (  5077 PWs)   bands (ev):

   -45.6230 -22.4871 -21.8589 -21.8418  -6.3820  -6.2289  -5.7927  -5.2093
    -5.1827  -5.0432  -5.0074  -4.8810   2.9416   5.7976   6.0907   7.0538
     7.7401   7.8596   8.3707   9.2189   9.6935   9.9427  13.3909  14.6566
    14.8907  15.2080

          k = 0.4500 0.1500 0.2500 (  5077 PWs)   bands (ev):

   -45.6230 -22.4392 -21.8870 -21.8593  -6.8166  -5.8726  -5.7765  -5.1677
    -5.1355  -5.0822  -5.0078  -4.9558   3.1039   6.3215   6.3971   6.6062
     7.5149   7.9653   8.7515   9.2010   9.3170  10.0457  13.6822  14.0604
    14.6603  14.9706

          k = 0.3500 0.1500 0.3500 (  5081 PWs)   bands (ev):

   -45.6229 -22.4390 -21.8763 -21.8760  -6.8294  -5.8504  -5.7563  -5.1506
    -5.1461  -5.0592  -4.9823  -4.9548   3.1335   6.1124   6.2852   6.6442
     7.3179   7.9401   8.7877   9.2008   9.3523  10.1748  13.6332  14.2812
    14.4648  15.2707

          k =-0.1500 0.4500 0.3500 (  5079 PWs)   bands (ev):

   -45.6227 -22.4861 -21.8753 -21.8412  -6.3458  -6.2173  -5.7662  -5.1964
    -5.1650  -5.0505  -5.0023  -4.7831   2.9170   5.6896   6.1946   6.8606
     7.3875   7.9136   8.3272   8.9484   9.4908   9.9123  13.7017  14.7154
    14.8896  15.5900

          k = 0.4500 0.1500 0.3500 (  5079 PWs)   bands (ev):

   -45.6227 -22.4385 -21.8862 -21.8756  -6.8252  -5.7897  -5.7406  -5.1455
    -5.1354  -5.0254  -4.9741  -4.9682   3.0941   6.0916   6.1575   6.4485
     7.2524   7.9808   8.7820   9.1578   9.2093  10.3253  13.8964  14.1770
    14.6083  15.3802

          k = 0.4500 0.1500 0.4500 (  5073 PWs)   bands (ev):

   -45.6225 -22.4380 -21.8858 -21.8857  -6.8340  -5.7319  -5.7200  -5.1323
    -5.1279  -4.9965  -4.9826  -4.9459   3.0810   6.0057   6.0267   6.3053
     7.1345   8.0161   8.7233   9.1004   9.1094  10.5224  14.1532  14.3347
    14.4971  15.6422

          k =-0.2500 0.3500 0.2500 (  5072 PWs)   bands (ev):

   -45.6229 -22.4754 -21.8589 -21.8586  -6.5245  -6.1021  -5.8531  -5.1865
    -5.1622  -5.0486  -4.9332  -4.8495   3.1287   5.7407   6.1890   6.6949
     7.6772   7.7405   8.2022   9.4229   9.6219   9.8820  13.4007  14.5139
    14.6305  15.3925

          k =-0.2500 0.4500 0.2500 (  5073 PWs)   bands (ev):

   -45.6227 -22.4861 -21.8583 -21.8581  -6.3640  -6.1717  -5.8646  -5.1892
    -5.1565  -5.0170  -4.9236  -4.8288   3.0527   5.6038   5.9699   6.7336
     7.6131   7.7686   8.0649   9.4373   9.5055   9.9128  13.5367  14.6650
    14.8169  15.5575

          k = 0.3500 0.2500 0.3500 (  5057 PWs)   bands (ev):

   -45.6225 -22.4564 -21.8754 -21.8752  -6.6738  -5.9333  -5.8363  -5.1518
    -5.1237  -5.0199  -4.8968  -4.8466   3.2740   5.7260   5.9632   6.4923
     7.3655   7.4785   8.3341   9.4056   9.4407  10.1942  13.6487  14.4119
    14.5569  15.5970

          k =-0.2500 0.4500 0.3500 (  5063 PWs)   bands (ev):

   -45.6223 -22.4852 -21.8746 -21.8576  -6.3620  -6.1421  -5.8728  -5.1715
    -5.1181  -5.0172  -4.8663  -4.7489   3.1606   5.4614   5.9810   6.4287
     7.1796   7.6366   7.8831   9.2197   9.7058   9.9638  13.8282  14.6807
    14.8154  15.8963

          k = 0.4500 0.2500 0.3500 (  5063 PWs)   bands (ev):

   -45.6223 -22.4559 -21.8854 -21.8748  -6.6756  -5.9026  -5.8264  -5.1409
    -5.1119  -4.9830  -4.8656  -4.8431   3.3109   5.6948   5.7832   6.3485
     7.2391   7.4646   8.1279   9.3797   9.4489  10.3223  13.9815  14.2932
    14.6783  15.8064

          k = 0.4500 0.2500 0.4500 (  5070 PWs)   bands (ev):

   -45.6221 -22.4554 -21.8849 -21.8849  -6.6899  -5.8505  -5.8386  -5.1254
    -5.1061  -4.9316  -4.8367  -4.8295   3.3997   5.5787   5.6091   6.2311
     7.1460   7.3863   7.8320   9.4313   9.4416  10.5155  14.2507  14.4247
    14.6025  16.0771

          k =-0.3500 0.4500 0.3500 (  5056 PWs)   bands (ev):

   -45.6219 -22.4844 -21.8740 -21.8738  -6.3960  -6.0614  -5.9394  -5.1488
    -5.0856  -4.9735  -4.7590  -4.7019   3.4605   5.2423   5.9089   6.0393
     6.8725   7.2773   7.4041   9.5219   9.6624  10.2299  14.0838  14.7081
    14.8170  16.2243

          k = 0.4500 0.3500 0.4500 (  5051 PWs)   bands (ev):

   -45.6217 -22.4727 -21.8841 -21.8840  -6.5428  -5.9419  -5.9291  -5.1236
    -5.0799  -4.9058  -4.7109  -4.7029   3.8300   5.2318   5.3123   6.0614
     6.8513   6.9364   7.1547   9.6546   9.6692  10.5089  14.4431  14.6365
    14.6985  16.5058

     the Fermi energy is    10.5575 ev

!    total energy              =    -364.90668905 Ry
     Harris-Foulkes estimate   =    -364.90668905 Ry
     estimated scf accuracy    <          3.1E-09 Ry

     The total energy is the sum of the following terms:

     one-electron contribution =     -86.69600939 Ry
     hartree contribution      =      72.85630452 Ry
     xc contribution           =     -85.95424861 Ry
     ewald contribution        =    -265.11760395 Ry
     smearing contrib. (-TS)   =       0.00486837 Ry

     convergence has been achieved in  11 iterations

     Forces acting on atoms (cartesian axes, Ry/au):

     atom    1 type  1   force =     0.00000000   -0.03656851    0.00000000
     atom    2 type  2   force =     0.00000000    0.27604837    0.00000000
     atom    3 type  3   force =     0.00000000   -0.01981404    0.00000000
     atom    4 type  3   force =     0.00000000   -0.19985179    0.00000000
     atom    5 type  3   force =     0.00000000   -0.01981404    0.00000000

     Total force =     0.201807     Total SCF correction =     0.000120


     Computing stress (Cartesian axis) and pressure

          total   stress  (Ry/bohr**3)                   (kbar)     P=  101.38
   0.00018822   0.00000000   0.00000000         27.69      0.00      0.00
   0.00000000   0.00169114   0.00000000          0.00    248.77      0.00
   0.00000000   0.00000000   0.00018822          0.00      0.00     27.69


     BFGS Geometry Optimization

     number of scf cycles    =   1
     number of bfgs steps    =   0

     energy   new            =    -364.9066890476 Ry

     new trust radius        =       0.1998517883 bohr
     new conv_thr            =       0.0000000100 Ry


ATOMIC_POSITIONS (crystal)
Pb       0.000000000   0.000000000   0.000000000    0   0   0
Ti       0.500000000   0.405000000   0.500000000    0   0   0
O        0.500000000   0.497354601   0.000000000
O        0.500000000  -0.026682482   0.500000000
O        0.000000000   0.497354601   0.500000000



     Writing output data file PbTiO3.save/
     NEW-OLD atomic charge density approx. for the potential

     Check: negative core charge=   -0.000006

     total cpu time spent up to now is      287.7 secs

     Self-consistent Calculation

     iteration #  1     ecut=    80.00 Ry     beta= 0.70
     Davidson diagonalization with overlap
     ethr =  1.00E-06,  avg # of iterations =  8.7

     total cpu time spent up to now is      329.3 secs

     total energy              =    -364.92144488 Ry
     Harris-Foulkes estimate   =    -364.93469795 Ry
     estimated scf accuracy    <       0.01762829 Ry

     iteration #  2     ecut=    80.00 Ry     beta= 0.70
     Davidson diagonalization with overlap
     ethr =  4.01E-05,  avg # of iterations =  4.4

     total cpu time spent up to now is      357.4 secs

     total energy              =    -364.91387701 Ry
     Harris-Foulkes estimate   =    -364.94449401 Ry
     estimated scf accuracy    <       0.09152627 Ry

     iteration #  3     ecut=    80.00 Ry     beta= 0.70
     Davidson diagonalization with overlap
     ethr =  4.01E-05,  avg # of iterations =  4.3

     total cpu time spent up to now is      383.7 secs

     total energy              =    -364.92973065 Ry
     Harris-Foulkes estimate   =    -364.93049255 Ry
     estimated scf accuracy    <       0.00227633 Ry

     iteration #  4     ecut=    80.00 Ry     beta= 0.70
     Davidson diagonalization with overlap
     ethr =  5.17E-06,  avg # of iterations =  2.9

     total cpu time spent up to now is      405.1 secs

     total energy              =    -364.92999703 Ry
     Harris-Foulkes estimate   =    -364.93014835 Ry
     estimated scf accuracy    <       0.00032530 Ry

     iteration #  5     ecut=    80.00 Ry     beta= 0.70
     Davidson diagonalization with overlap
     ethr =  7.39E-07,  avg # of iterations =  3.1

     total cpu time spent up to now is      427.3 secs

     total energy              =    -364.93006915 Ry
     Harris-Foulkes estimate   =    -364.93010445 Ry
     estimated scf accuracy    <       0.00008758 Ry

     iteration #  6     ecut=    80.00 Ry     beta= 0.70
     Davidson diagonalization with overlap
     ethr =  1.99E-07,  avg # of iterations =  2.8

     total cpu time spent up to now is      448.5 secs

     total energy              =    -364.93008665 Ry
     Harris-Foulkes estimate   =    -364.93008723 Ry
     estimated scf accuracy    <       0.00000172 Ry

     iteration #  7     ecut=    80.00 Ry     beta= 0.70
     Davidson diagonalization with overlap
     ethr =  3.92E-09,  avg # of iterations =  3.3

     total cpu time spent up to now is      472.8 secs

     total energy              =    -364.93008736 Ry
     Harris-Foulkes estimate   =    -364.93008741 Ry
     estimated scf accuracy    <       0.00000016 Ry

     iteration #  8     ecut=    80.00 Ry     beta= 0.70
     Davidson diagonalization with overlap
     ethr =  3.59E-10,  avg # of iterations =  2.5

     total cpu time spent up to now is      494.1 secs

     total energy              =    -364.93008738 Ry
     Harris-Foulkes estimate   =    -364.93008739 Ry
     estimated scf accuracy    <       0.00000001 Ry

     iteration #  9     ecut=    80.00 Ry     beta= 0.70
     Davidson diagonalization with overlap
     ethr =  3.31E-11,  avg # of iterations =  3.6

     total cpu time spent up to now is      517.8 secs

     End of self-consistent calculation

          k = 0.0500 0.0500 0.0500 (  5047 PWs)   bands (ev):

   -45.9068 -22.3887 -22.1428 -22.1428  -7.2663  -6.2211  -6.0121  -5.1264
    -5.0786  -5.0785  -4.9403  -4.8929   4.3571   6.7683   6.8327   7.0843
     8.2575   8.2776   8.9892   9.0793   9.5168   9.5961  12.6125  13.7262
    13.7762  14.9529

          k = 0.0500 0.0500 0.1500 (  5074 PWs)   bands (ev):

   -45.9066 -22.3882 -22.1529 -22.1425  -7.1953  -6.1840  -5.9871  -5.1337
    -5.0874  -5.0782  -4.9659  -4.8993   4.0706   6.8329   6.9486   7.2413
     8.1352   8.2935   8.9479   9.0833   9.3206   9.6088  12.9016  13.5395
    13.7633  15.2219

          k = 0.0500 0.0500 0.2500 (  5093 PWs)   bands (ev):

   -45.9062 -22.3875 -22.1690 -22.1419  -7.0772  -6.1168  -5.9493  -5.1451
    -5.1030  -5.0777  -5.0186  -4.9033   3.7076   6.9056   7.0303   7.3141
     8.1978   8.2875   8.8461   9.0136   9.1617   9.6241  13.3124  13.6051
    13.7619  14.9671

          k = 0.0500 0.0500 0.3500 (  5090 PWs)   bands (ev):

   -45.9059 -22.3868 -22.1852 -22.1413  -6.9542  -6.0344  -5.9193  -5.1566
    -5.1277  -5.0772  -5.0715  -4.9076   3.4167   6.6982   7.2368   7.4903
     8.1160   8.2907   8.6464   8.8221   9.1739   9.9429  13.6580  13.7404
    13.8815  14.1001

          k = 0.0500 0.0500 0.4500 (  5073 PWs)   bands (ev):

   -45.9056 -22.3863 -22.1951 -22.1409  -6.8755  -5.9607  -5.9181  -5.1677
    -5.1547  -5.0942  -5.0767  -4.9116   3.2614   6.5200   7.4925   7.7010
     7.9107   8.1360   8.5321   8.6975   9.2127  10.3613  13.2587  13.8121
    13.8992  14.1716

          k = 0.0500 0.1500 0.1500 (  5079 PWs)   bands (ev):

   -45.9063 -22.3993 -22.1524 -22.1420  -7.0906  -6.1738  -5.9563  -5.1333
    -5.0996  -5.0851  -4.9561  -4.9247   3.8443   6.7713   6.8588   7.3380
     8.0512   8.2138   8.8259   9.1086   9.3891   9.6969  12.8983  13.7144
    13.9367  15.2575

          k = 0.0500 0.1500 0.2500 (  5077 PWs)   bands (ev):

   -45.9060 -22.3985 -22.1685 -22.1414  -6.9761  -6.1143  -5.9301  -5.1452
    -5.1163  -5.0849  -4.9848  -4.9186   3.5567   6.7798   6.9869   7.3116
     8.0694   8.2001   8.6847   9.0433   9.1722   9.8162  13.2989  13.7608
    13.9325  14.9838

          k = 0.0500 0.1500 0.3500 (  5080 PWs)   bands (ev):

   -45.9056 -22.3977 -22.1846 -22.1409  -6.8579  -6.0469  -5.9087  -5.1569
    -5.1352  -5.0846  -5.0064  -4.9219   3.3122   6.6460   7.1722   7.3327
     7.9420   8.2005   8.6748   8.8109   9.1168  10.0180  13.6431  13.8913
    14.0014  14.2685

          k = 0.0500 0.1500 0.4500 (  5079 PWs)   bands (ev):

   -45.9054 -22.3972 -22.1945 -22.1405  -6.7827  -5.9979  -5.9008  -5.1620
    -5.1531  -5.0845  -5.0115  -4.9307   3.1780   6.4975   7.3637   7.4597
     7.7175   8.1049   8.5900   8.8936   9.0423  10.1924  13.6083  13.8659
    14.0148  14.2346

          k = 0.0500 0.2500 0.2500 (  5076 PWs)   bands (ev):

   -45.9056 -22.4163 -22.1677 -22.1407  -6.8026  -6.1227  -5.8876  -5.1450
    -5.1287  -5.0926  -4.9686  -4.9229   3.3259   6.5475   6.9226   7.1865
     7.8978   8.0854   8.5376   9.1352   9.2905  10.0167  13.2716  13.9904
    14.2024  14.9465

          k = 0.0500 0.2500 0.3500 (  5080 PWs)   bands (ev):

   -45.9053 -22.4154 -22.1837 -22.1401  -6.6974  -6.0856  -5.8607  -5.1550
    -5.1344  -5.0939  -4.9765  -4.8995   3.1457   6.4817   7.0350   7.1293
     7.7474   8.1116   8.4354   8.8597   9.3535  10.0067  13.5969  14.1198
    14.1913  14.6120

          k = 0.0500 0.2500 0.4500 (  5084 PWs)   bands (ev):

   -45.9051 -22.4149 -22.1936 -22.1398  -6.6326  -6.0674  -5.8354  -5.1571
    -5.1456  -5.0949  -4.9707  -4.8940   3.0432   6.3958   7.0533   7.2731
     7.4553   8.2171   8.4348   8.7315   9.3616   9.9424  13.7877  14.1030
    14.3097  14.4311

          k = 0.0500 0.3500 0.3500 (  5079 PWs)   bands (ev):

   -45.9049 -22.4330 -22.1829 -22.1394  -6.5327  -6.1223  -5.7972  -5.1542
    -5.1409  -5.0966  -5.0029  -4.8339   2.9833   6.1479   6.9404   6.9789
     7.7070   7.9257   8.4099   8.9453   9.3624  10.0327  13.5471  14.2563
    14.4796  15.0163

          k = 0.0500 0.3500 0.4500 (  5079 PWs)   bands (ev):

   -45.9047 -22.4324 -22.1927 -22.1391  -6.4924  -6.1076  -5.7593  -5.1555
    -5.1444  -5.0986  -5.0101  -4.7970   2.9098   6.1087   6.8252   7.1130
     7.4598   8.0829   8.3900   8.7737   9.2299  10.0053  13.7120  14.3969
    14.4734  14.9457

          k = 0.0500 0.4500 0.4500 (  5100 PWs)   bands (ev):

   -45.9045 -22.4432 -22.1921 -22.1386  -6.4242  -6.1048  -5.7057  -5.1564
    -5.1507  -5.0977  -5.0354  -4.7420   2.8283   5.8506   6.7740   7.0002
     7.5602   7.9129   8.4861   8.8025   8.9467  10.1561  13.6585  14.4585
    14.6652  15.3348

          k = 0.1500 0.1500 0.1500 (  5095 PWs)   bands (ev):

   -45.9061 -22.3988 -22.1521 -22.1519  -7.0275  -6.1444  -5.9379  -5.1381
    -5.1055  -5.0873  -4.9596  -4.9222   3.7037   6.6891   6.8445   7.4124
     7.9761   8.1990   8.6763   9.1754   9.5199   9.6213  13.0872  13.6706
    13.7937  15.6775

          k = 0.1500 0.1500 0.2500 (  5084 PWs)   bands (ev):

   -45.9058 -22.3981 -22.1681 -22.1514  -6.9257  -6.0915  -5.9101  -5.1439
    -5.1127  -5.0865  -4.9741  -4.9185   3.4873   6.6730   6.8241   7.3002
     7.8571   8.1514   8.7244   9.2156   9.3509   9.7663  13.3394  13.7045
    13.7972  15.0590

          k = 0.1500 0.1500 0.3500 (  5082 PWs)   bands (ev):

   -45.9054 -22.3973 -22.1842 -22.1508  -6.8250  -6.0287  -5.8870  -5.1489
    -5.1096  -5.0867  -4.9928  -4.9220   3.2869   6.6129   6.8373   7.1597
     7.7405   8.1555   8.8181   9.0497   9.2781   9.9417  13.4734  13.7614
    14.0226  14.5525

          k = 0.1500 0.1500 0.4500 (  5084 PWs)   bands (ev):

   -45.9052 -22.3968 -22.1940 -22.1504  -6.7637  -5.9808  -5.8782  -5.1494
    -5.1025  -5.0906  -5.0021  -4.9311   3.1715   6.4943   6.8919   7.0951
     7.6964   8.2303   8.6412   9.1206   9.2169  10.0280  13.4690  13.8529
    14.2386  14.3017

          k = 0.1500 0.2500 0.2500 (  5081 PWs)   bands (ev):

   -45.9054 -22.4158 -22.1673 -22.1507  -6.7531  -6.1052  -5.8925  -5.1436
    -5.1304  -5.0732  -4.9515  -4.9055   3.3240   6.4385   6.6359   7.0897
     7.7842   8.0723   8.5771   9.3067   9.4602   9.8944  13.2440  13.9516
    14.0066  14.9608

          k = 0.1500 0.2500 0.3500 (  5080 PWs)   bands (ev):

   -45.9051 -22.4150 -22.1833 -22.1500  -6.6620  -6.0755  -5.8704  -5.1444
    -5.1169  -5.0727  -4.9500  -4.8850   3.1940   6.4133   6.6278   6.9059
     7.4531   8.1508   8.7354   9.1425   9.3839   9.8632  13.4514  13.9535
    14.1457  14.8651

          k = 0.1500 0.2500 0.4500 (  5077 PWs)   bands (ev):

   -45.9049 -22.4144 -22.1931 -22.1497  -6.6082  -6.0629  -5.8466  -5.1403
    -5.1007  -5.0837  -4.9407  -4.8820   3.1146   6.3761   6.6722   6.7695
     7.2735   8.2557   8.8625   8.9673   9.3060   9.7908  13.6921  13.8829
    14.3177  14.7905

          k = 0.1500 0.3500 0.3500 (  5081 PWs)   bands (ev):

   -45.9047 -22.4325 -22.1825 -22.1493  -6.4892  -6.1259  -5.8470  -5.1450
    -5.1154  -5.0466  -4.9578  -4.8192   3.0873   6.0958   6.4726   6.7518
     7.3080   8.1198   8.5784   9.1661   9.4058   9.8754  13.4727  14.2182
    14.2925  15.2032

          k = 0.1500 0.3500 0.4500 (  5079 PWs)   bands (ev):

   -45.9045 -22.4319 -22.1923 -22.1489  -6.4523  -6.1267  -5.8137  -5.1392
    -5.0918  -5.0630  -4.9546  -4.7828   3.0431   6.0722   6.4929   6.7062
     6.9867   8.2517   8.6698   8.8718   9.2462   9.9275  13.7107  14.2094
    14.3962  15.2704

          k = 0.1500 0.4500 0.4500 (  5073 PWs)   bands (ev):

   -45.9043 -22.4427 -22.1917 -22.1485  -6.3636  -6.1503  -5.7938  -5.1393
    -5.0840  -5.0381  -4.9755  -4.7264   2.9926   5.8221   6.3556   6.7578
     6.9368   8.2097   8.4396   8.7468   9.2644  10.0745  13.7336  14.4366
    14.4609  15.6005

          k = 0.2500 0.2500 0.2500 (  5070 PWs)   bands (ev):

   -45.9051 -22.4150 -22.1668 -22.1665  -6.6809  -6.0723  -5.8960  -5.1318
    -5.1251  -5.0483  -4.9304  -4.8794   3.3042   6.2378   6.4735   6.8796
     7.6586   7.7745   8.7606   9.4390   9.6256   9.7516  13.2009  13.9521
    14.0036  15.0132

          k = 0.2500 0.2500 0.3500 (  5072 PWs)   bands (ev):

   -45.9047 -22.4142 -22.1826 -22.1660  -6.6208  -6.0393  -5.8854  -5.1245
    -5.1030  -5.0228  -4.9118  -4.8615   3.2642   6.1657   6.3171   6.6610
     7.3694   7.7429   8.8175   9.3989   9.4913   9.8652  13.3439  13.9576
    14.1652  15.1530

          k = 0.2500 0.2500 0.4500 (  5073 PWs)   bands (ev):

   -45.9045 -22.4137 -22.1924 -22.1656  -6.5903  -6.0249  -5.8652  -5.1189
    -5.0870  -5.0031  -4.8970  -4.8600   3.2306   6.1940   6.2403   6.4447
     7.2356   7.7863   8.7136   9.3255   9.4560   9.9016  13.6376  13.8713
    14.3312  15.2576

          k = 0.2500 0.3500 0.3500 (  5057 PWs)   bands (ev):

   -45.9044 -22.4317 -22.1818 -22.1652  -6.4443  -6.1034  -5.9128  -5.1228
    -5.0853  -4.9893  -4.8752  -4.7915   3.2695   5.8653   6.1814   6.3737
     7.1856   7.6698   8.4136   9.3701   9.7237   9.8730  13.4838  14.1770
    14.2858  15.4743

          k = 0.2500 0.3500 0.4500 (  5063 PWs)   bands (ev):

   -45.9042 -22.4312 -22.1916 -22.1648  -6.4237  -6.1105  -5.8867  -5.1147
    -5.0621  -4.9805  -4.8569  -4.7568   3.2923   5.8688   6.1112   6.2201
     6.9479   7.7221   8.0991   9.3295   9.7826   9.9203  13.7782  14.1143
    14.4043  15.6912

          k = 0.2500 0.4500 0.4500 (  5070 PWs)   bands (ev):

   -45.9039 -22.4419 -22.1910 -22.1644  -6.3045  -6.1723  -5.8999  -5.1122
    -5.0447  -4.9642  -4.8349  -4.6975   3.3163   5.6638   5.9909   6.2104
     6.8454   7.5627   7.7624   9.3114   9.8600  10.0163  13.8802  14.3335
    14.4708  15.9881

          k = 0.3500 0.3500 0.3500 (  5055 PWs)   bands (ev):

   -45.9040 -22.4309 -22.1812 -22.1810  -6.4324  -6.0553  -5.9563  -5.1001
    -5.0657  -4.9294  -4.8016  -4.7564   3.4707   5.6459   5.8969   6.2024
     7.1072   7.2651   7.8484   9.6320   9.7479  10.1337  13.6893  14.2699
    14.2893  15.7951

          k = 0.3500 0.3500 0.4500 (  5056 PWs)   bands (ev):

   -45.9038 -22.4304 -22.1909 -22.1807  -6.4366  -6.0440  -5.9480  -5.0882
    -5.0540  -4.8895  -4.7663  -4.7273   3.6041   5.5922   5.7063   6.1050
     6.9424   7.2214   7.3852   9.6776   9.8410  10.2456  13.9680  14.2049
    14.4094  16.1047

          k = 0.3500 0.4500 0.4500 (  5051 PWs)   bands (ev):

   -45.9036 -22.4412 -22.1904 -22.1802  -6.3318  -6.0980  -5.9833  -5.0861
    -5.0374  -4.8690  -4.7137  -4.6637   3.7772   5.3951   5.7423   5.8884
     6.6443   6.8822   7.2209   9.7467   9.9777  10.2504  14.1058  14.3807
    14.4879  16.3970

          k = 0.4500 0.4500 0.4500 (  5034 PWs)   bands (ev):

   -45.9034 -22.4407 -22.1900 -22.1899  -6.3614  -6.0392  -6.0249  -5.0717
    -5.0324  -4.8120  -4.6463  -4.6393   4.2628   5.2588   5.4179   5.8251
     6.0363   6.7590   6.9960   9.9536   9.9695  10.4196  14.3096  14.4735
    14.4786  16.7464

          k =-0.0500 0.1500 0.0500 (  5074 PWs)   bands (ev):

   -45.9066 -22.3998 -22.1424 -22.1424  -7.1596  -6.2080  -5.9738  -5.1259
    -5.0878  -5.0851  -4.9376  -4.9325   4.0522   6.7605   6.7939   7.1976
     8.1976   8.2001   8.9370   9.0482   9.5938   9.6429  12.6142  13.8916
    13.9503  14.9633

          k =-0.0500 0.2500 0.0500 (  5093 PWs)   bands (ev):

   -45.9062 -22.4176 -22.1417 -22.1417  -6.9720  -6.1971  -5.9044  -5.1250
    -5.1056  -5.0945  -5.0012  -4.9354   3.6583   6.7179   6.7356   7.0012
     8.1166   8.1365   8.9883   9.2138   9.7149   9.7518  12.6165  14.1575
    14.2281  14.9822

          k =-0.0500 0.3500 0.0500 (  5090 PWs)   bands (ev):

   -45.9058 -22.4354 -22.1410 -22.1410  -6.7518  -6.2122  -5.8208  -5.1398
    -5.1241  -5.1026  -5.0676  -4.9362   3.3373   6.3961   6.6968   6.8581
     8.0772   8.1102   8.9241   9.5468   9.7829  10.1271  12.6177  14.3401
    14.4179  14.5266

          k =-0.0500 0.4500 0.0500 (  5073 PWs)   bands (ev):

   -45.9056 -22.4463 -22.1406 -22.1406  -6.5726  -6.2610  -5.7567  -5.1882
    -5.1235  -5.1068  -5.0938  -4.9385   3.1641   6.1147   6.6669   6.8240
     8.0697   8.1078   8.8838   9.6615   9.8239  10.6017  12.6156  13.6041
    14.5710  14.6859

          k = 0.1500 0.0500 0.1500 (  5079 PWs)   bands (ev):

   -45.9063 -22.3878 -22.1526 -22.1523  -7.1309  -6.1509  -5.9600  -5.1385
    -5.0871  -5.0861  -4.9712  -4.9145   3.8684   6.7876   7.0213   7.3610
     7.9866   8.2723   8.7996   9.1463   9.4026   9.6009  13.1065  13.5113
    13.6048  15.6702

          k =-0.0500 0.2500 0.1500 (  5077 PWs)   bands (ev):

   -45.9060 -22.4171 -22.1517 -22.1413  -6.9075  -6.1674  -5.9008  -5.1326
    -5.1214  -5.0928  -4.9657  -4.9470   3.5251   6.6077   6.7951   7.1878
     7.9406   8.1399   8.8757   9.1208   9.5021   9.9097  12.8904  13.9877
    14.2121  15.2218

          k = 0.2500 0.0500 0.1500 (  5077 PWs)   bands (ev):

   -45.9060 -22.3871 -22.1686 -22.1518  -7.0263  -6.0888  -5.9185  -5.1433
    -5.0995  -5.0857  -5.0024  -4.9242   3.5828   6.8246   7.0130   7.3813
     7.9012   8.1121   8.8773   9.1381   9.3816   9.6454  13.3807  13.5644
    13.6464  15.1558

          k =-0.0500 0.3500 0.1500 (  5080 PWs)   bands (ev):

   -45.9056 -22.4348 -22.1509 -22.1406  -6.6955  -6.1845  -5.8360  -5.1533
    -5.1315  -5.0981  -4.9990  -4.9475   3.2482   6.3030   6.6948   7.0481
     7.8837   8.1188   9.0057   9.1347   9.5913  10.2224  12.8766  14.2172
    14.4543  14.6155

          k = 0.3500 0.0500 0.1500 (  5080 PWs)   bands (ev):

   -45.9056 -22.3863 -22.1847 -22.1512  -6.9219  -6.0081  -5.8849  -5.1482
    -5.1098  -5.0850  -5.0489  -4.9284   3.3359   6.6992   7.0359   7.4701
     7.8439   8.0279   8.7154   9.0937   9.3584   9.9454  13.4438  13.7396
    13.9308  14.3682

          k =-0.0500 0.4500 0.1500 (  5079 PWs)   bands (ev):

   -45.9054 -22.4457 -22.1505 -22.1402  -6.5270  -6.2291  -5.7892  -5.1828
    -5.1310  -5.1026  -5.0088  -4.9547   3.0938   6.0467   6.6303   7.0035
     7.8698   8.1230   9.0381   9.1948   9.6405  10.4651  12.8611  13.9842
    14.4823  14.6754

          k = 0.4500 0.0500 0.1500 (  5079 PWs)   bands (ev):

   -45.9054 -22.3859 -22.1946 -22.1508  -6.8580  -5.9305  -5.8845  -5.1569
    -5.1130  -5.0847  -5.0785  -4.9328   3.1989   6.5227   7.1766   7.4350
     7.8975   8.1049   8.3582   9.0835   9.3709  10.2393  13.3133  13.9010
    13.9649  14.1933

          k = 0.2500 0.0500 0.2500 (  5076 PWs)   bands (ev):

   -45.9056 -22.3864 -22.1681 -22.1677  -6.9491  -6.0307  -5.8694  -5.1342
    -5.0991  -5.0940  -4.9886  -4.9553   3.3876   6.7805   6.9397   7.3982
     7.6047   7.8928   9.0352   9.1456   9.5482   9.6834  13.4127  13.6311
    13.7741  15.0512

          k =-0.0500 0.3500 0.2500 (  5080 PWs)   bands (ev):

   -45.9053 -22.4339 -22.1669 -22.1400  -6.6094  -6.1481  -5.8338  -5.1509
    -5.1411  -5.0964  -4.9834  -4.9018   3.1109   6.2092   6.8103   7.0995
     7.7366   8.0773   8.5649   9.2070   9.3467  10.1598  13.2397  14.1667
    14.4762  14.8800

          k = 0.3500 0.0500 0.2500 (  5080 PWs)   bands (ev):

   -45.9053 -22.3857 -22.1839 -22.1672  -6.8796  -5.9481  -5.8263  -5.1305
    -5.1014  -5.0932  -5.0058  -4.9640   3.2027   6.6830   6.8505   7.2699
     7.5210   7.9199   8.8181   9.1956   9.5412   9.9340  13.4522  13.8011
    14.0024  14.6902

          k =-0.0500 0.4500 0.2500 (  5084 PWs)   bands (ev):

   -45.9051 -22.4448 -22.1664 -22.1396  -6.4681  -6.1816  -5.7957  -5.1687
    -5.1416  -5.1007  -4.9870  -4.8911   2.9855   5.9558   6.7233   7.0809
     7.6571   8.1093   8.6351   9.2233   9.3590  10.2133  13.2210  14.2366
    14.6577  14.8548

          k = 0.4500 0.0500 0.2500 (  5084 PWs)   bands (ev):

   -45.9051 -22.3852 -22.1938 -22.1668  -6.8412  -5.8664  -5.8186  -5.1375
    -5.1001  -5.0955  -5.0103  -4.9712   3.0940   6.5036   6.9301   7.1043
     7.5417   8.1271   8.4641   9.2796   9.4787  10.1088  13.4584  13.9419
    14.2208  14.4259

          k = 0.3500 0.0500 0.3500 (  5079 PWs)   bands (ev):

   -45.9050 -22.3850 -22.1833 -22.1830  -6.8495  -5.8606  -5.7678  -5.1198
    -5.1068  -5.0870  -5.0091  -4.9577   3.0683   6.5640   6.7579   7.0835
     7.2478   8.0496   8.8652   8.9847   9.5595  10.1001  13.6418  13.9177
    14.0848  14.9313

          k =-0.0500 0.4500 0.3500 (  5079 PWs)   bands (ev):

   -45.9047 -22.4438 -22.1823 -22.1390  -6.4329  -6.1360  -5.7524  -5.1591
    -5.1478  -5.0987  -5.0176  -4.7950   2.8854   5.8874   6.8768   6.9320
     7.6696   7.8901   8.4545   8.9970   9.2124  10.1041  13.5161  14.3518
    14.6646  15.3340

          k = 0.4500 0.0500 0.3500 (  5079 PWs)   bands (ev):

   -45.9047 -22.3845 -22.1930 -22.1827  -6.8366  -5.7795  -5.7437  -5.1215
    -5.1044  -5.0936  -5.0233  -4.9355   2.9856   6.4040   6.7986   6.9117
     7.1829   8.2518   8.5957   9.0180   9.4484  10.2629  13.7745  14.0017
    14.2215  14.9417

          k = 0.4500 0.0500 0.4500 (  5100 PWs)   bands (ev):

   -45.9045 -22.3841 -22.1925 -22.1925  -6.8385  -5.7100  -5.6968  -5.1178
    -5.1004  -5.0918  -5.0604  -4.8944   2.9174   6.2800   6.7824   6.8357
     6.9891   8.4220   8.6633   8.7570   9.2962  10.4444  14.0262  14.1195
    14.1743  15.2381

          k =-0.1500 0.2500 0.1500 (  5084 PWs)   bands (ev):

   -45.9058 -22.4166 -22.1514 -22.1512  -6.8478  -6.1426  -5.9002  -5.1367
    -5.1334  -5.0811  -4.9489  -4.9384   3.4509   6.5354   6.6517   7.2498
     7.9784   8.0546   8.6360   9.1952   9.6586   9.8180  13.0404  13.9402
    14.0592  15.1617

          k =-0.1500 0.3500 0.1500 (  5082 PWs)   bands (ev):

   -45.9054 -22.4343 -22.1506 -22.1505  -6.6413  -6.1623  -5.8599  -5.1594
    -5.1347  -5.0638  -4.9593  -4.9495   3.2162   6.3188   6.3899   7.1558
     7.9686   7.9943   8.6759   9.1924   9.7009  10.1003  12.9770  14.2242
    14.2583  14.7698

          k =-0.1500 0.4500 0.1500 (  5084 PWs)   bands (ev):

   -45.9052 -22.4452 -22.1502 -22.1500  -6.4781  -6.2069  -5.8334  -5.1747
    -5.1333  -5.0432  -4.9745  -4.9598   3.0802   6.0523   6.3042   7.1534
     7.9426   8.0082   8.7237   9.1827   9.7293  10.2270  12.9397  14.3070
    14.4077  14.6682

          k = 0.2500 0.1500 0.2500 (  5081 PWs)   bands (ev):

   -45.9054 -22.3974 -22.1676 -22.1672  -6.8500  -6.0447  -5.8794  -5.1340
    -5.1171  -5.0764  -4.9638  -4.9210   3.3640   6.5453   6.7076   7.1571
     7.6318   7.9906   8.8859   9.2891   9.5597   9.7060  13.3290  13.7374
    13.8586  14.9596

          k =-0.1500 0.3500 0.2500 (  5080 PWs)   bands (ev):

   -45.9051 -22.4334 -22.1665 -22.1499  -6.5599  -6.1357  -5.8723  -5.1524
    -5.1322  -5.0469  -4.9553  -4.8855   3.1556   6.1734   6.3982   6.9668
     7.7641   8.0215   8.4845   9.3294   9.5717   9.9395  13.1899  14.1643
    14.2594  15.0016

          k = 0.3500 0.1500 0.2500 (  5080 PWs)   bands (ev):

   -45.9051 -22.3966 -22.1834 -22.1668  -6.7833  -5.9814  -5.8528  -5.1301
    -5.1086  -5.0569  -4.9657  -4.9271   3.2325   6.4951   6.6017   6.9028
     7.5114   7.9709   8.9570   9.2128   9.4540   9.8913  13.3766  13.8138
    14.0654  14.8663

          k =-0.1500 0.4500 0.2500 (  5077 PWs)   bands (ev):

   -45.9049 -22.4442 -22.1660 -22.1495  -6.4140  -6.1775  -5.8596  -5.1588
    -5.1297  -5.0175  -4.9724  -4.8745   3.0513   5.9575   6.2384   6.9809
     7.7832   7.9995   8.4418   9.3157   9.6172   9.9066  13.2044  14.3140
    14.4569  15.0866

          k = 0.4500 0.1500 0.2500 (  5077 PWs)   bands (ev):

   -45.9049 -22.3961 -22.1933 -22.1663  -6.7473  -5.9297  -5.8420  -5.1286
    -5.0996  -5.0343  -4.9738  -4.9373   3.1497   6.4536   6.5610   6.7201
     7.4964   8.0137   8.8764   9.2282   9.3303   9.9731  13.4925  13.8552
    14.2661  14.7836

          k = 0.3500 0.1500 0.3500 (  5081 PWs)   bands (ev):

   -45.9047 -22.3959 -22.1828 -22.1826  -6.7560  -5.9116  -5.8215  -5.1137
    -5.1061  -5.0229  -4.9396  -4.9357   3.1627   6.4087   6.4179   6.7022
     7.2509   7.9688   8.9799   9.1869   9.2930  10.1051  13.5054  13.9361
    14.1384  15.1368

          k =-0.1500 0.4500 0.3500 (  5079 PWs)   bands (ev):

   -45.9045 -22.4433 -22.1819 -22.1489  -6.3742  -6.1593  -5.8326  -5.1465
    -5.1109  -5.0148  -4.9817  -4.7796   3.0160   5.8596   6.3208   6.7715
     7.3015   8.0753   8.4907   9.0443   9.4032   9.9480  13.5229  14.3564
    14.4642  15.4953

          k = 0.4500 0.1500 0.3500 (  5079 PWs)   bands (ev):

   -45.9045 -22.3954 -22.1925 -22.1822  -6.7455  -5.8548  -5.8069  -5.1091
    -5.0949  -4.9987  -4.9530  -4.9189   3.1130   6.3282   6.3906   6.5201
     7.1583   8.0112   8.9002   9.0900   9.2054  10.2496  13.7269  13.9441
    14.2730  15.2699

          k = 0.4500 0.1500 0.4500 (  5073 PWs)   bands (ev):

   -45.9043 -22.3950 -22.1920 -22.1920  -6.7498  -5.7988  -5.7866  -5.1022
    -5.0786  -4.9817  -4.9698  -4.8812   3.0827   6.2335   6.3500   6.3937
     6.9818   8.0488   8.7060   9.0960   9.0983  10.4392  13.9674  14.0671
    14.2512  15.5795

          k =-0.2500 0.3500 0.2500 (  5072 PWs)   bands (ev):

   -45.9047 -22.4326 -22.1660 -22.1658  -6.4927  -6.1134  -5.9129  -5.1376
    -5.1138  -5.0096  -4.9086  -4.8462   3.2195   5.9816   6.2541   6.6419
     7.6379   7.6783   8.5822   9.5193   9.5825   9.8055  13.2404  14.1543
    14.2166  15.2126

          k =-0.2500 0.4500 0.2500 (  5073 PWs)   bands (ev):

   -45.9045 -22.4434 -22.1655 -22.1653  -6.3465  -6.1655  -5.9235  -5.1384
    -5.1067  -4.9729  -4.9073  -4.8283   3.1566   5.8401   6.0136   6.6515
     7.5911   7.6889   8.4322   9.4799   9.5471   9.8387  13.3498  14.2951
    14.4044  15.4602

          k = 0.3500 0.2500 0.3500 (  5057 PWs)   bands (ev):

   -45.9044 -22.4134 -22.1820 -22.1818  -6.5993  -5.9849  -5.8943  -5.1034
    -5.0906  -4.9657  -4.8757  -4.8425   3.3191   5.9844   6.0762   6.4889
     7.2578   7.4764   8.5056   9.4571   9.5315  10.1166  13.4951  14.0555
    14.2181  15.4500

          k =-0.2500 0.4500 0.3500 (  5063 PWs)   bands (ev):

   -45.9042 -22.4425 -22.1813 -22.1648  -6.3120  -6.1612  -5.9291  -5.1211
    -5.0733  -4.9637  -4.8588  -4.7496   3.2576   5.6893   6.0089   6.3541
     7.1062   7.6277   8.1019   9.3319   9.8029   9.9076  13.6350  14.3151
    14.4263  15.7745

          k = 0.4500 0.2500 0.3500 (  5063 PWs)   bands (ev):

   -45.9042 -22.4130 -22.1917 -22.1815  -6.5943  -5.9568  -5.8842  -5.0928
    -5.0798  -4.9217  -4.8556  -4.8371   3.3424   5.9333   5.9706   6.3243
     7.1257   7.4663   8.1931   9.4906   9.5296  10.2437  13.7885  14.0057
    14.3388  15.7006

          k = 0.4500 0.2500 0.4500 (  5070 PWs)   bands (ev):

   -45.9040 -22.4125 -22.1912 -22.1912  -6.6040  -5.9062  -5.8944  -5.0756
    -5.0749  -4.8669  -4.8302  -4.8285   3.4051   5.8521   5.8523   6.1950
     6.9863   7.4042   7.8132   9.5389   9.5492  10.4312  14.0184  14.1246
    14.3301  16.0144

          k =-0.3500 0.4500 0.3500 (  5056 PWs)   bands (ev):

   -45.9038 -22.4417 -22.1807 -22.1805  -6.3150  -6.1081  -5.9907  -5.0980
    -5.0503  -4.9068  -4.7566  -4.7068   3.5532   5.4626   5.9171   5.9822
     6.8845   7.2697   7.4199   9.6908   9.8360  10.1476  13.8748  14.3542
    14.4456  16.0975

          k = 0.4500 0.3500 0.4500 (  5051 PWs)   bands (ev):

   -45.9036 -22.4299 -22.1905 -22.1904  -6.4552  -5.9920  -5.9793  -5.0728
    -5.0489  -4.8335  -4.7142  -4.7077   3.8493   5.4659   5.4980   6.0159
     6.8399   6.9472   6.9922   9.8288   9.8419  10.4238  14.1929  14.3097
    14.3926  16.4414

     the Fermi energy is    10.4845 ev

!    total energy              =    -364.93008739 Ry
     Harris-Foulkes estimate   =    -364.93008739 Ry
     estimated scf accuracy    <          1.2E-09 Ry

     The total energy is the sum of the following terms:

     one-electron contribution =     -83.99449526 Ry
     hartree contribution      =      71.43406676 Ry
     xc contribution           =     -85.85452494 Ry
     ewald contribution        =    -266.52072904 Ry
     smearing contrib. (-TS)   =       0.00559510 Ry

     convergence has been achieved in   9 iterations

     Forces acting on atoms (cartesian axes, Ry/au):

     atom    1 type  1   force =     0.00000000   -0.03693268    0.00000000
     atom    2 type  2   force =     0.00000000    0.13490728    0.00000000
     atom    3 type  3   force =     0.00000000   -0.02986790    0.00000000
     atom    4 type  3   force =     0.00000000   -0.03823880    0.00000000
     atom    5 type  3   force =     0.00000000   -0.02986790    0.00000000

     Total force =     0.056977     Total SCF correction =     0.000023


     Computing stress (Cartesian axis) and pressure

          total   stress  (Ry/bohr**3)                   (kbar)     P=   38.65
   0.00007044   0.00000000   0.00000000         10.36      0.00      0.00
   0.00000000   0.00064732   0.00000000          0.00     95.22      0.00
   0.00000000   0.00000000   0.00007044          0.00      0.00     10.36


     number of scf cycles    =   2
     number of bfgs steps    =   1

     energy   old            =    -364.9066890476 Ry
     energy   new            =    -364.9300873851 Ry

     CASE: energy  _new < energy  _old

     new trust radius        =       0.0594859448 bohr
     new conv_thr            =       0.0000000038 Ry


ATOMIC_POSITIONS (crystal)
Pb       0.000000000   0.000000000   0.000000000    0   0   0
Ti       0.500000000   0.405000000   0.500000000    0   0   0
O        0.500000000   0.492122429   0.000000000
O        0.500000000  -0.034624530   0.500000000
O        0.000000000   0.492122429   0.500000000



     Writing output data file PbTiO3.save/
     NEW-OLD atomic charge density approx. for the potential

     Check: negative core charge=   -0.000006

     total cpu time spent up to now is      535.1 secs

     Self-consistent Calculation

     iteration #  1     ecut=    80.00 Ry     beta= 0.70
     Davidson diagonalization with overlap
     ethr =  1.00E-06,  avg # of iterations =  4.9

     total cpu time spent up to now is      570.0 secs

     total energy              =    -364.93329389 Ry
     Harris-Foulkes estimate   =    -364.93418421 Ry
     estimated scf accuracy    <       0.00131130 Ry

     iteration #  2     ecut=    80.00 Ry     beta= 0.70
     Davidson diagonalization with overlap
     ethr =  2.98E-06,  avg # of iterations =  4.5

     total cpu time spent up to now is      597.7 secs

     total energy              =    -364.93289351 Ry
     Harris-Foulkes estimate   =    -364.93464668 Ry
     estimated scf accuracy    <       0.00482858 Ry

     iteration #  3     ecut=    80.00 Ry     beta= 0.70
     Davidson diagonalization with overlap
     ethr =  2.98E-06,  avg # of iterations =  4.1

     total cpu time spent up to now is      623.4 secs

     total energy              =    -364.93379270 Ry
     Harris-Foulkes estimate   =    -364.93385970 Ry
     estimated scf accuracy    <       0.00020948 Ry

     iteration #  4     ecut=    80.00 Ry     beta= 0.70
     Davidson diagonalization with overlap
     ethr =  4.76E-07,  avg # of iterations =  2.9

     total cpu time spent up to now is      644.7 secs

     total energy              =    -364.93381859 Ry
     Harris-Foulkes estimate   =    -364.93382867 Ry
     estimated scf accuracy    <       0.00002028 Ry

     iteration #  5     ecut=    80.00 Ry     beta= 0.70
     Davidson diagonalization with overlap
     ethr =  4.61E-08,  avg # of iterations =  3.1

     total cpu time spent up to now is      667.3 secs

     total energy              =    -364.93382343 Ry
     Harris-Foulkes estimate   =    -364.93382636 Ry
     estimated scf accuracy    <       0.00000732 Ry

     iteration #  6     ecut=    80.00 Ry     beta= 0.70
     Davidson diagonalization with overlap
     ethr =  1.66E-08,  avg # of iterations =  3.0

     total cpu time spent up to now is      688.8 secs

     total energy              =    -364.93382494 Ry
     Harris-Foulkes estimate   =    -364.93382511 Ry
     estimated scf accuracy    <       0.00000044 Ry

     iteration #  7     ecut=    80.00 Ry     beta= 0.70
     Davidson diagonalization with overlap
     ethr =  9.93E-10,  avg # of iterations =  2.9

     total cpu time spent up to now is      710.6 secs

     total energy              =    -364.93382504 Ry
     Harris-Foulkes estimate   =    -364.93382504 Ry
     estimated scf accuracy    <          5.9E-09 Ry

     iteration #  8     ecut=    80.00 Ry     beta= 0.70
     Davidson diagonalization with overlap
     ethr =  1.33E-11,  avg # of iterations =  4.0

     total cpu time spent up to now is      738.9 secs

     End of self-consistent calculation

          k = 0.0500 0.0500 0.0500 (  5047 PWs)   bands (ev):

   -45.9790 -22.3963 -22.2194 -22.2193  -7.2572  -6.2209  -6.0437  -5.1132
    -5.0716  -5.0715  -4.9338  -4.8929   4.3662   6.7822   6.8291   7.0775
     8.3904   8.4213   9.0767   9.0780   9.4936   9.5627  12.5516  13.5357
    13.5748  14.8716

          k = 0.0500 0.0500 0.1500 (  5074 PWs)   bands (ev):

   -45.9787 -22.3959 -22.2294 -22.2190  -7.1834  -6.1860  -6.0184  -5.1205
    -5.0807  -5.0712  -4.9589  -4.8980   4.0828   6.8417   6.9222   7.2433
     8.2616   8.4349   8.9859   9.0853   9.3232   9.5825  12.8462  13.3838
    13.5645  15.1245

          k = 0.0500 0.0500 0.2500 (  5093 PWs)   bands (ev):

   -45.9784 -22.3951 -22.2457 -22.2184  -7.0601  -6.1233  -5.9800  -5.1320
    -5.0972  -5.0706  -5.0093  -4.9005   3.7228   6.8790   7.0339   7.2989
     8.3073   8.3970   8.8635   9.0030   9.2023   9.6070  13.2641  13.4889
    13.5660  14.9527

          k = 0.0500 0.0500 0.3500 (  5090 PWs)   bands (ev):

   -45.9780 -22.3944 -22.2619 -22.2178  -6.9311  -6.0476  -5.9487  -5.1443
    -5.1215  -5.0701  -5.0593  -4.9037   3.4344   6.6601   7.2421   7.4629
     8.1555   8.3533   8.6939   8.8403   9.2318   9.9441  13.5374  13.6494
    13.7897  14.1104

          k = 0.0500 0.0500 0.4500 (  5073 PWs)   bands (ev):

   -45.9778 -22.3940 -22.2719 -22.2175  -6.8480  -5.9814  -5.9447  -5.1592
    -5.1422  -5.0821  -5.0696  -4.9070   3.2808   6.4708   7.4920   7.7040
     7.8947   8.1102   8.6427   8.7459   9.2754  10.3717  13.2831  13.6306
    13.8638  14.0819

          k = 0.0500 0.1500 0.1500 (  5079 PWs)   bands (ev):

   -45.9785 -22.4069 -22.2290 -22.2186  -7.0813  -6.1734  -5.9886  -5.1201
    -5.0923  -5.0782  -4.9492  -4.9227   3.8608   6.7844   6.8741   7.3333
     8.1439   8.3192   8.8603   9.1198   9.3676   9.6742  12.8437  13.5695
    13.7512  15.1739

          k = 0.0500 0.1500 0.2500 (  5077 PWs)   bands (ev):

   -45.9782 -22.4061 -22.2452 -22.2180  -6.9619  -6.1178  -5.9610  -5.1323
    -5.1084  -5.0778  -4.9773  -4.9158   3.5744   6.7739   7.0080   7.2958
     8.1390   8.2745   8.7275   9.0306   9.1880   9.8019  13.2533  13.6488
    13.7504  14.9849

          k = 0.0500 0.1500 0.3500 (  5080 PWs)   bands (ev):

   -45.9778 -22.4054 -22.2613 -22.2174  -6.8381  -6.0562  -5.9367  -5.1449
    -5.1257  -5.0776  -4.9987  -4.9180   3.3309   6.6208   7.1863   7.3207
     7.9692   8.2292   8.7077   8.8565   9.1484  10.0133  13.6038  13.7354
    13.9118  14.2741

          k = 0.0500 0.1500 0.4500 (  5079 PWs)   bands (ev):

   -45.9776 -22.4049 -22.2713 -22.2170  -6.7590  -6.0129  -5.9254  -5.1523
    -5.1409  -5.0774  -5.0041  -4.9258   3.1975   6.4564   7.3609   7.4745
     7.7264   8.0779   8.6519   8.9445   9.0935  10.1954  13.5890  13.8311
    13.8900  14.1473

          k = 0.0500 0.2500 0.2500 (  5076 PWs)   bands (ev):

   -45.9778 -22.4238 -22.2444 -22.2173  -6.7953  -6.1192  -5.9190  -5.1324
    -5.1188  -5.0857  -4.9617  -4.9204   3.3480   6.5781   6.9658   7.1601
     7.9398   8.1161   8.5503   9.1193   9.3242   9.9935  13.2305  13.8906
    14.0390  14.9464

          k = 0.0500 0.2500 0.3500 (  5080 PWs)   bands (ev):

   -45.9775 -22.4230 -22.2605 -22.2167  -6.6864  -6.0847  -5.8882  -5.1425
    -5.1240  -5.0869  -4.9700  -4.8972   3.1661   6.4945   7.0112   7.1640
     7.7520   8.1199   8.4530   8.8657   9.4209   9.9816  13.5690  14.0143
    14.0679  14.6083

          k = 0.0500 0.2500 0.4500 (  5084 PWs)   bands (ev):

   -45.9773 -22.4224 -22.2704 -22.2163  -6.6199  -6.0670  -5.8607  -5.1444
    -5.1355  -5.0879  -4.9648  -4.8914   3.0628   6.3845   7.0307   7.3015
     7.4744   8.1873   8.4310   8.7780   9.4537   9.9153  13.7674  13.9905
    14.2313  14.4010

          k = 0.0500 0.3500 0.3500 (  5079 PWs)   bands (ev):

   -45.9771 -22.4405 -22.2596 -22.2160  -6.5397  -6.1010  -5.8266  -5.1416
    -5.1290  -5.0897  -4.9957  -4.8340   3.0057   6.1885   6.8806   7.0474
     7.6928   7.9342   8.4026   8.9328   9.4397  10.0062  13.5261  14.1884
    14.3323  15.0071

          k = 0.0500 0.3500 0.4500 (  5079 PWs)   bands (ev):

   -45.9769 -22.4399 -22.2695 -22.2156  -6.5019  -6.0814  -5.7867  -5.1422
    -5.1333  -5.0919  -5.0032  -4.7976   2.9294   6.1394   6.7684   7.1796
     7.4358   8.0800   8.3555   8.7884   9.3135   9.9961  13.7019  14.3143
    14.3427  14.9538

          k = 0.0500 0.4500 0.4500 (  5100 PWs)   bands (ev):

   -45.9767 -22.4506 -22.2690 -22.2152  -6.4530  -6.0574  -5.7352  -5.1437
    -5.1373  -5.0914  -5.0276  -4.7443   2.8478   5.8912   6.7131   7.0635
     7.5213   7.9175   8.4464   8.8024   9.0258  10.1637  13.6554  14.3949
    14.5233  15.3500

          k = 0.1500 0.1500 0.1500 (  5095 PWs)   bands (ev):

   -45.9783 -22.4064 -22.2287 -22.2285  -7.0148  -6.1464  -5.9698  -5.1255
    -5.0977  -5.0803  -4.9518  -4.9200   3.7191   6.7243   6.8357   7.4120
     8.0321   8.2830   8.7273   9.1871   9.5225   9.5811  13.0392  13.5338
    13.6340  15.6059

          k = 0.1500 0.1500 0.2500 (  5084 PWs)   bands (ev):

   -45.9780 -22.4057 -22.2448 -22.2280  -6.9069  -6.0986  -5.9408  -5.1326
    -5.1037  -5.0791  -4.9656  -4.9155   3.5019   6.6961   6.8265   7.2962
     7.8928   8.1743   8.8159   9.2089   9.3485   9.7480  13.2976  13.5752
    13.6764  15.0675

          k = 0.1500 0.1500 0.3500 (  5082 PWs)   bands (ev):

   -45.9776 -22.4049 -22.2609 -22.2273  -6.7994  -6.0425  -5.9152  -5.1392
    -5.0989  -5.0786  -4.9841  -4.9179   3.3014   6.5951   6.8627   7.1591
     7.7507   8.1833   8.8377   9.0786   9.3039   9.9283  13.4040  13.6802
    13.9329  14.5477

          k = 0.1500 0.1500 0.4500 (  5084 PWs)   bands (ev):

   -45.9774 -22.4044 -22.2708 -22.2270  -6.7338  -6.0008  -5.9032  -5.1408
    -5.0901  -5.0822  -4.9940  -4.9262   3.1863   6.4558   6.8996   7.1290
     7.6861   8.2713   8.6108   9.1758   9.2554  10.0160  13.3856  13.8219
    14.1546  14.2730

          k = 0.1500 0.2500 0.2500 (  5081 PWs)   bands (ev):

   -45.9776 -22.4233 -22.2440 -22.2272  -6.7403  -6.1055  -5.9234  -5.1326
    -5.1193  -5.0656  -4.9438  -4.9038   3.3437   6.4862   6.6556   7.0757
     7.7708   8.0744   8.6690   9.3197   9.4435   9.8683  13.2163  13.8372
    13.8892  14.9483

          k = 0.1500 0.2500 0.3500 (  5080 PWs)   bands (ev):

   -45.9773 -22.4225 -22.2601 -22.2266  -6.6433  -6.0808  -5.8976  -5.1340
    -5.1057  -5.0637  -4.9436  -4.8832   3.2117   6.4378   6.6486   6.8926
     7.4340   8.1387   8.8274   9.1041   9.4369   9.8351  13.4276  13.8400
    14.0578  14.8506

          k = 0.1500 0.2500 0.4500 (  5077 PWs)   bands (ev):

   -45.9770 -22.4220 -22.2700 -22.2262  -6.5861  -6.0711  -5.8714  -5.1305
    -5.0899  -5.0726  -4.9359  -4.8796   3.1312   6.3729   6.6827   6.7710
     7.2646   8.2442   8.8648   8.9995   9.3772   9.7638  13.6456  13.8029
    14.2345  14.7844

          k = 0.1500 0.3500 0.3500 (  5081 PWs)   bands (ev):

[...]
    -4.9631  -4.8865  -4.7704  -4.6951   3.3767   6.3794   6.4338   6.9713
     7.2508   7.3240   9.2778   9.3243   9.3901   9.6363  13.2547  13.4911
    13.5678  15.1325

          k = 0.2500 0.2500 0.3500 (  5072 PWs)   bands (ev):

   -46.2950 -22.5984 -22.5803 -22.5628  -6.6180  -6.2398  -6.1031  -4.9621
    -4.9463  -4.8494  -4.7417  -4.6794   3.2687   6.1721   6.2955   6.5416
     7.1199   7.2787   8.9932   9.4117   9.5186   9.7230  13.3037  13.6443
    13.8066  15.3239

          k = 0.2500 0.2500 0.4500 (  5073 PWs)   bands (ev):

   -46.2948 -22.6090 -22.5798 -22.5623  -6.5557  -6.1878  -6.1282  -4.9587
    -4.9348  -4.8178  -4.7265  -4.6763   3.1957   6.0124   6.0625   6.4606
     7.0943   7.3203   8.7638   9.4166   9.5518   9.7699  13.3292  13.8083
    14.0077  15.6159

          k = 0.2500 0.3500 0.3500 (  5057 PWs)   bands (ev):

   -46.2947 -22.5976 -22.5797 -22.5794  -6.5698  -6.2479  -6.0177  -4.9516
    -4.9308  -4.8164  -4.7220  -4.6384   3.3221   5.9640   6.1265   6.3612
     6.6890   7.0957   8.6899   9.4278   9.5782   9.9273  13.4440  13.7316
    14.0004  15.5986

          k = 0.2500 0.3500 0.4500 (  5063 PWs)   bands (ev):

   -46.2945 -22.6083 -22.5792 -22.5790  -6.5379  -6.1903  -6.0342  -4.9462
    -4.9157  -4.7892  -4.7046  -4.6123   3.2906   5.8042   6.0036   6.1550
     6.6480   7.0995   8.3688   9.4266   9.6181  10.0367  13.6309  13.7786
    14.1493  15.9773

          k = 0.2500 0.4500 0.4500 (  5070 PWs)   bands (ev):

   -46.2943 -22.6078 -22.5893 -22.5787  -6.5409  -6.1931  -5.9580  -4.9421
    -4.8989  -4.7683  -4.6926  -4.5736   3.3405   5.7301   5.9305   6.0210
     6.3085   7.0923   8.0285   9.4486   9.6180  10.1944  13.7442  13.8940
    14.2821  16.2465

          k = 0.3500 0.3500 0.3500 (  5055 PWs)   bands (ev):

   -46.2944 -22.5970 -22.5968 -22.5788  -6.4318  -6.2651  -6.0670  -4.9243
    -4.9217  -4.7456  -4.6543  -4.6100   3.3995   5.7089   5.8302   6.2473
     6.5593   6.6440   8.0954   9.7129   9.8515   9.9698  13.6143  13.9161
    13.9870  15.9786

          k = 0.3500 0.3500 0.4500 (  5056 PWs)   bands (ev):

   -46.2942 -22.6075 -22.5964 -22.5783  -6.3807  -6.2333  -6.1009  -4.9184
    -4.9055  -4.6942  -4.6253  -4.5864   3.4280   5.5541   5.7735   5.9743
     6.4755   6.6290   7.6578   9.8254   9.9126  10.0473  13.8164  13.9375
    14.1152  16.3813

          k = 0.3500 0.4500 0.4500 (  5051 PWs)   bands (ev):

   -46.2939 -22.6071 -22.5960 -22.5886  -6.3902  -6.2528  -6.0244  -4.9108
    -4.8937  -4.6665  -4.5905  -4.5435   3.6168   5.3823   5.5799   5.8968
     6.2912   6.5018   7.2055   9.8488  10.0152  10.1971  13.9107  14.0524
    14.2382  16.6945

          k = 0.4500 0.4500 0.4500 (  5034 PWs)   bands (ev):

   -46.2937 -22.6066 -22.6066 -22.5882  -6.2992  -6.2829  -6.0620  -4.8919
    -4.8907  -4.6041  -4.5303  -4.5229   3.7977   5.3189   5.3690   5.7742
     6.2343   6.3053   6.5858  10.0268  10.1891  10.2018  14.0825  14.1983
    14.2208  17.0789

          k =-0.0500 0.1500 0.0500 (  5074 PWs)   bands (ev):

   -46.2968 -22.5544 -22.5544 -22.5488  -7.2907  -6.3902  -6.1701  -4.9513
    -4.9501  -4.9359  -4.8356  -4.7467   4.2402   6.7663   6.7764   7.2531
     8.7510   8.7950   9.1268   9.2424   9.3740   9.4241  12.2667  12.7411
    12.7417  14.4149

          k =-0.0500 0.2500 0.0500 (  5093 PWs)   bands (ev):

   -46.2965 -22.5658 -22.5538 -22.5538  -7.1690  -6.3513  -6.1075  -4.9639
    -4.9588  -4.9350  -4.8198  -4.7899   3.9141   6.8372   6.8990   7.0822
     8.4105   8.4879   9.0812   9.1643   9.3729   9.5818  12.2699  13.2057
    13.2113  14.4155

          k =-0.0500 0.3500 0.0500 (  5090 PWs)   bands (ev):

   -46.2962 -22.5827 -22.5532 -22.5531  -7.0458  -6.3102  -6.0416  -4.9765
    -4.9672  -4.9340  -4.8354  -4.8039   3.6563   6.4718   7.0767   7.1525
     8.0618   8.1365   9.0175   9.2368   9.4034  10.0147  12.2721  13.6353
    13.6397  14.2807

          k =-0.0500 0.4500 0.0500 (  5073 PWs)   bands (ev):

   -46.2960 -22.5932 -22.5528 -22.5528  -6.9690  -6.2834  -5.9988  -4.9843
    -4.9723  -4.9335  -4.8649  -4.7939   3.5238   6.1391   7.2564   7.3608
     7.7903   7.8318   8.9759   9.2856   9.4292  10.4455  12.2714  13.5805
    13.8913  13.9026

          k = 0.1500 0.0500 0.1500 (  5079 PWs)   bands (ev):

   -46.2966 -22.5655 -22.5651 -22.5374  -7.1875  -6.3585  -6.1808  -4.9721
    -4.9520  -4.9397  -4.8358  -4.7190   3.9524   6.7024   6.9091   7.3744
     8.3845   8.5482   9.0576   9.2244   9.3568   9.4925  12.6901  12.7450
    12.8394  14.7901

          k =-0.0500 0.2500 0.1500 (  5077 PWs)   bands (ev):

   -46.2963 -22.5654 -22.5646 -22.5534  -7.0895  -6.3353  -6.0871  -4.9678
    -4.9563  -4.9418  -4.8259  -4.7646   3.7495   6.7294   6.9358   7.1839
     8.1166   8.3899   8.7754   9.1576   9.3222   9.7094  12.5928  13.2091
    13.3610  14.7413

          k = 0.2500 0.0500 0.1500 (  5077 PWs)   bands (ev):

   -46.2963 -22.5829 -22.5646 -22.5368  -7.0403  -6.3124  -6.1679  -4.9913
    -4.9519  -4.9361  -4.8268  -4.7230   3.6352   6.6491   6.9546   7.2851
     8.0682   8.3272   8.8701   9.2223   9.3387   9.7058  12.7103  13.1700
    13.2328  14.8451

          k =-0.0500 0.3500 0.1500 (  5080 PWs)   bands (ev):

   -46.2960 -22.5822 -22.5640 -22.5527  -6.9762  -6.3013  -6.0160  -4.9788
    -4.9560  -4.9413  -4.8172  -4.7915   3.5315   6.4560   7.0038   7.1633
     7.8135   8.1587   8.7177   9.1814   9.2966  10.0462  12.5885  13.6371
    13.7394  14.4920

          k = 0.3500 0.0500 0.1500 (  5080 PWs)   bands (ev):

   -46.2959 -22.6004 -22.5639 -22.5361  -6.8878  -6.2600  -6.1613  -5.0050
    -4.9474  -4.9299  -4.8208  -4.7363   3.3727   6.3158   6.9925   7.3075
     7.8008   8.1542   8.7971   9.1716   9.3853  10.0347  12.6992  13.5932
    13.6199  14.7402

          k =-0.0500 0.4500 0.1500 (  5079 PWs)   bands (ev):

   -46.2957 -22.5926 -22.5636 -22.5524  -6.9076  -6.2788  -5.9684  -4.9858
    -4.9559  -4.9411  -4.8168  -4.8034   3.4146   6.1441   7.1170   7.2807
     7.6347   7.9079   8.7599   9.2098   9.2657  10.3041  12.5783  13.8848
    13.9108  14.0770

          k = 0.4500 0.0500 0.1500 (  5079 PWs)   bands (ev):

   -46.2957 -22.6111 -22.5635 -22.5357  -6.7910  -6.2148  -6.1697  -5.0105
    -4.9443  -4.9234  -4.8135  -4.7539   3.2330   6.0046   7.0737   7.3737
     7.7185   7.9094   8.8310   9.1269   9.4226  10.2917  12.6814  13.8482
    13.8599  14.3016

          k = 0.2500 0.0500 0.2500 (  5076 PWs)   bands (ev):

   -46.2959 -22.5824 -22.5819 -22.5361  -6.8987  -6.2673  -6.1731  -4.9951
    -4.9538  -4.9185  -4.8036  -4.7278   3.3812   6.6058   6.8798   7.1973
     7.9326   7.9338   8.7665   9.0960   9.4255   9.8280  13.1068  13.2054
    13.5184  15.0261

          k =-0.0500 0.3500 0.2500 (  5080 PWs)   bands (ev):

   -46.2956 -22.5817 -22.5813 -22.5521  -6.8788  -6.2649  -5.9722  -4.9763
    -4.9559  -4.9404  -4.8328  -4.7312   3.3375   6.4453   6.7548   7.1467
     7.6701   7.9607   8.3884   8.8799   9.6207   9.9491  13.0537  13.6336
    13.9360  14.7945

          k = 0.3500 0.0500 0.2500 (  5080 PWs)   bands (ev):

   -46.2956 -22.5996 -22.5814 -22.5355  -6.7573  -6.2193  -6.1756  -4.9968
    -4.9472  -4.8949  -4.7867  -4.7419   3.1541   6.3232   6.7811   7.1616
     7.6574   8.0022   8.5796   9.0716   9.5083   9.9217  13.1315  13.5845
    13.8211  14.9524

          k =-0.0500 0.4500 0.2500 (  5084 PWs)   bands (ev):

   -46.2954 -22.5918 -22.5810 -22.5517  -6.8312  -6.2403  -5.9150  -4.9825
    -4.9534  -4.9355  -4.8342  -4.7297   3.2413   6.1512   6.7829   7.1538
     7.5855   7.9594   8.2386   8.8892   9.6129  10.0373  13.0460  13.8882
    14.1212  14.6133

          k = 0.4500 0.0500 0.2500 (  5084 PWs)   bands (ev):

   -46.2954 -22.6103 -22.5809 -22.5351  -6.6719  -6.1920  -6.1697  -4.9965
    -4.9412  -4.8705  -4.7788  -4.7608   3.0263   6.0169   6.8477   7.0626
     7.6160   8.0386   8.4471   9.1227   9.5077   9.9626  13.1182  13.8401
    14.0217  14.8178

          k = 0.3500 0.0500 0.3500 (  5079 PWs)   bands (ev):

   -46.2952 -22.5989 -22.5986 -22.5348  -6.6413  -6.1734  -6.1727  -4.9898
    -4.9355  -4.8631  -4.7570  -4.7507   2.9476   6.2916   6.3868   7.1556
     7.4439   8.0145   8.5653   8.8194   9.6963   9.7732  13.5217  13.6033
    14.0500  15.1343

          k =-0.0500 0.4500 0.3500 (  5079 PWs)   bands (ev):

   -46.2951 -22.5984 -22.5909 -22.5510  -6.7890  -6.1552  -5.8584  -4.9806
    -4.9619  -4.9250  -4.8516  -4.6561   3.0731   6.1273   6.3615   7.1695
     7.4029   7.9005   8.2014   8.5860   9.5822  10.0363  13.4883  13.8840
    14.3218  15.0975

          k = 0.4500 0.0500 0.3500 (  5079 PWs)   bands (ev):

   -46.2950 -22.6094 -22.5982 -22.5344  -6.5837  -6.1622  -6.1358  -4.9860
    -4.9230  -4.8356  -4.7777  -4.7293   2.8263   6.0047   6.3916   7.0986
     7.3684   8.1740   8.3944   8.8103   9.4973   9.9008  13.5502  13.8264
    14.2164  15.2227

          k = 0.4500 0.0500 0.4500 (  5100 PWs)   bands (ev):

   -46.2948 -22.6089 -22.6089 -22.5340  -6.5526  -6.1181  -6.1126  -4.9807
    -4.9004  -4.8158  -4.7988  -4.6964   2.7061   5.9000   6.2047   7.1587
     7.1947   8.3181   8.4619   8.5830   9.2008  10.0591  13.8098  13.8227
    14.3625  15.3631

          k =-0.1500 0.2500 0.1500 (  5084 PWs)   bands (ev):

   -46.2961 -22.5650 -22.5643 -22.5641  -7.0075  -6.3225  -6.0783  -4.9737
    -4.9592  -4.9336  -4.8163  -4.7448   3.6419   6.6930   6.7428   7.2299
     7.9087   8.0604   8.9144   9.1691   9.4142   9.6061  12.8081  13.3432
    13.3445  15.2102

          k =-0.1500 0.3500 0.1500 (  5082 PWs)   bands (ev):

   -46.2957 -22.5818 -22.5637 -22.5635  -6.9012  -6.2996  -6.0038  -4.9841
    -4.9510  -4.9240  -4.8087  -4.7645   3.4673   6.4507   6.7636   7.0050
     7.6615   8.1012   8.6082   9.2178   9.4227   9.9073  12.7551  13.7094
    13.7232  14.7050

          k =-0.1500 0.4500 0.1500 (  5084 PWs)   bands (ev):

   -46.2955 -22.5921 -22.5633 -22.5631  -6.8382  -6.2853  -5.9522  -4.9890
    -4.9474  -4.9134  -4.8068  -4.7784   3.3690   6.1485   6.7737   7.0301
     7.5332   8.1869   8.3959   9.2490   9.4113  10.0786  12.6999  13.9329
    13.9636  14.4241

          k = 0.2500 0.1500 0.2500 (  5081 PWs)   bands (ev):

   -46.2957 -22.5819 -22.5815 -22.5466  -6.8350  -6.2707  -6.1438  -4.9845
    -4.9586  -4.9076  -4.7899  -4.7141   3.3851   6.5562   6.6666   7.0208
     7.5515   7.8600   9.0917   9.1192   9.4903   9.6422  13.2068  13.3260
    13.4678  15.1943

          k =-0.1500 0.3500 0.2500 (  5080 PWs)   bands (ev):

   -46.2954 -22.5812 -22.5808 -22.5629  -6.7942  -6.2769  -5.9831  -4.9782
    -4.9550  -4.8988  -4.8028  -4.7133   3.3500   6.4146   6.6112   6.6946
     7.3191   7.7797   8.8149   9.0919   9.6339   9.7376  13.0749  13.6607
    13.8746  14.9927

          k = 0.3500 0.1500 0.2500 (  5080 PWs)   bands (ev):

   -46.2954 -22.5991 -22.5810 -22.5459  -6.6964  -6.2285  -6.1560  -4.9833
    -4.9486  -4.8772  -4.7682  -4.7188   3.2009   6.3154   6.5765   6.7757
     7.3339   7.9025   8.8228   9.2534   9.5575   9.7079  13.1769  13.6297
    13.7549  15.1306

          k =-0.1500 0.4500 0.2500 (  5077 PWs)   bands (ev):

   -46.2952 -22.5913 -22.5806 -22.5625  -6.7484  -6.2659  -5.9240  -4.9804
    -4.9493  -4.8784  -4.8084  -4.7111   3.2796   6.1528   6.5557   6.6376
     7.2374   7.8371   8.6360   9.1353   9.6007   9.8036  13.0312  13.8965
    14.0762  14.9767

          k = 0.4500 0.1500 0.2500 (  5077 PWs)   bands (ev):

   -46.2952 -22.6098 -22.5805 -22.5455  -6.6151  -6.1926  -6.1666  -4.9813
    -4.9407  -4.8468  -4.7537  -4.7360   3.0919   6.0193   6.4986   6.7655
     7.2791   8.0004   8.6134   9.3357   9.5470   9.7132  13.1419  13.8564
    13.9619  15.1856

          k = 0.3500 0.1500 0.3500 (  5081 PWs)   bands (ev):

   -46.2950 -22.5985 -22.5981 -22.5453  -6.5697  -6.1960  -6.1737  -4.9742
    -4.9328  -4.8329  -4.7315  -4.7212   3.0455   6.2875   6.3396   6.5737
     6.9506   7.8900   8.9050   9.0993   9.4761   9.7829  13.4773  13.6388
    13.9585  15.3793

          k =-0.1500 0.4500 0.3500 (  5079 PWs)   bands (ev):

   -46.2948 -22.5979 -22.5905 -22.5618  -6.6992  -6.1955  -5.8960  -4.9736
    -4.9364  -4.8641  -4.8069  -4.6412   3.1739   6.1270   6.2793   6.4932
     6.7851   7.7783   8.7551   8.9691   9.2648  10.0302  13.4358  13.8610
    14.2343  15.4720

          k = 0.4500 0.1500 0.3500 (  5079 PWs)   bands (ev):

   -46.2948 -22.6090 -22.5978 -22.5449  -6.5054  -6.1846  -6.1588  -4.9695
    -4.9187  -4.7923  -4.7386  -4.7084   2.9472   6.0025   6.3537   6.4966
     6.8476   7.9398   8.7406   9.1657   9.2864   9.8941  13.5286  13.8167
    14.1231  15.6367

          k = 0.4500 0.1500 0.4500 (  5073 PWs)   bands (ev):

   -46.2946 -22.6085 -22.6084 -22.5445  -6.4647  -6.1530  -6.1498  -4.9637
    -4.8972  -4.7600  -4.7434  -4.6808   2.8521   5.8943   6.1994   6.5534
     6.6066   7.9532   8.6493   9.0802   9.1194  10.0542  13.7813  13.8079
    14.2604  15.9231

          k =-0.2500 0.3500 0.2500 (  5072 PWs)   bands (ev):

   -46.2951 -22.5806 -22.5802 -22.5801  -6.6663  -6.2825  -5.9995  -4.9642
    -4.9481  -4.8554  -4.7578  -4.6790   3.3502   6.2397   6.2660   6.5579
     7.1070   7.1649   9.0446   9.3482   9.4894   9.7611  13.2023  13.6999
    13.8630  15.2581

          k =-0.2500 0.4500 0.2500 (  5073 PWs)   bands (ev):

   -46.2948 -22.5906 -22.5800 -22.5797  -6.6282  -6.2863  -5.9368  -4.9636
    -4.9380  -4.8246  -4.7590  -4.6703   3.3261   6.1427   6.1510   6.2726
     7.0590   7.1923   8.8392   9.3769   9.4888   9.8143  13.1905  13.8901
    14.0705  15.4523

          k = 0.3500 0.2500 0.3500 (  5057 PWs)   bands (ev):

   -46.2947 -22.5977 -22.5975 -22.5621  -6.4781  -6.2316  -6.1455  -4.9481
    -4.9285  -4.7891  -4.6948  -4.6648   3.2152   6.0348   6.1352   6.3047
     6.6349   7.2267   8.6449   9.5501   9.6197   9.8237  13.4875  13.7688
    13.8984  15.6414

          k =-0.2500 0.4500 0.3500 (  5063 PWs)   bands (ev):

   -46.2945 -22.5972 -22.5898 -22.5792  -6.5538  -6.2521  -5.9493  -4.9487
    -4.9170  -4.7889  -4.7155  -4.6132   3.3455   5.8957   5.9960   6.1274
     6.5309   7.0922   8.4043   9.4510   9.5783  10.0381  13.4961  13.8902
    14.1683  15.8850

          k = 0.4500 0.2500 0.3500 (  5063 PWs)   bands (ev):

   -46.2945 -22.6082 -22.5971 -22.5617  -6.4071  -6.2035  -6.1759  -4.9426
    -4.9130  -4.7377  -4.6807  -4.6546   3.1673   5.9253   6.0042   6.1295
     6.5382   7.2353   8.3152   9.5955   9.6475   9.9084  13.6149  13.8533
    14.0637  16.0105

          k = 0.4500 0.2500 0.4500 (  5070 PWs)   bands (ev):

   -46.2943 -22.6078 -22.6077 -22.5612  -6.3278  -6.2046  -6.1971  -4.9363
    -4.8942  -4.6816  -4.6564  -4.6445   3.1299   5.8704   5.9828   5.9929
     6.2448   7.2309   7.9188   9.6539   9.6596  10.0473  13.8349  13.8775
    14.1747  16.3476

          k =-0.3500 0.4500 0.3500 (  5056 PWs)   bands (ev):

   -46.2942 -22.5965 -22.5964 -22.5891  -6.4230  -6.2849  -5.9967  -4.9218
    -4.9055  -4.7151  -4.6302  -4.5768   3.5193   5.5746   5.6459   6.0680
     6.4568   6.5442   7.7085   9.7378   9.9427  10.0793  13.7057  14.0019
    14.1649  16.3060

          k = 0.4500 0.3500 0.4500 (  5051 PWs)   bands (ev):

   -46.2939 -22.6071 -22.6070 -22.5779  -6.2787  -6.2543  -6.1465  -4.9089
    -4.8920  -4.6315  -4.5777  -4.5730   3.4916   5.5428   5.5880   5.8453
     6.2335   6.6138   7.1326  10.0040  10.0267  10.0629  13.9998  14.0566
    14.1356  16.7602

     the Fermi energy is    10.3801 ev

!    total energy              =    -364.94961384 Ry
     Harris-Foulkes estimate   =    -364.94961384 Ry
     estimated scf accuracy    <          1.6E-11 Ry

     The total energy is the sum of the following terms:

     one-electron contribution =     -86.52008483 Ry
     hartree contribution      =      72.59399755 Ry
     xc contribution           =     -85.84885000 Ry
     ewald contribution        =    -265.18094381 Ry
     smearing contrib. (-TS)   =       0.00626725 Ry

     convergence has been achieved in   7 iterations

     Forces acting on atoms (cartesian axes, Ry/au):

     atom    1 type  1   force =     0.00000000   -0.02674916    0.00000000
     atom    2 type  2   force =     0.00000000    0.02600079    0.00000000
     atom    3 type  3   force =     0.00000000   -0.00008088    0.00000000
     atom    4 type  3   force =     0.00000000    0.00091012    0.00000000
     atom    5 type  3   force =     0.00000000   -0.00008088    0.00000000

     Total force =     0.000917     Total SCF correction =     0.000003


     Computing stress (Cartesian axis) and pressure

          total   stress  (Ry/bohr**3)                   (kbar)     P=   26.75
   0.00020339   0.00000000   0.00000000         29.92      0.00      0.00
   0.00000000   0.00013866   0.00000000          0.00     20.40      0.00
   0.00000000   0.00000000   0.00020339          0.00      0.00     29.92


     bfgs converged in  12 scf cycles and  11 bfgs steps
     (criteria: energy <  1.0E-04 Ry, force <  1.0E-03 Ry/Bohr)

     End of BFGS Geometry Optimization

     Final energy   =    -364.9496138404 Ry
Begin final coordinates

ATOMIC_POSITIONS (crystal)
Pb       0.000000000   0.000000000   0.000000000    0   0   0
Ti       0.500000000   0.405000000   0.500000000    0   0   0
O        0.500000000   0.416934170   0.000000000
O        0.500000000  -0.071693214   0.500000000
O        0.000000000   0.416934170   0.500000000
End final coordinates



     Writing output data file PbTiO3.save/
 
     init_run     :      9.65s CPU     10.41s WALL (       1 calls)
     electrons    :   2386.39s CPU   2500.64s WALL (      12 calls)
     update_pot   :      3.13s CPU      3.24s WALL (      11 calls)
     forces       :     30.48s CPU     36.92s WALL (      12 calls)
     stress       :    132.95s CPU    149.96s WALL (      12 calls)

     Called by init_run:
     wfcinit      :      7.23s CPU      7.31s WALL (       1 calls)
     potinit      :      0.23s CPU      0.26s WALL (       1 calls)
     hinit0       :      1.31s CPU      1.44s WALL (       1 calls)

     Called by electrons:
     c_bands      :   1896.74s CPU   1911.03s WALL (     104 calls)
     sum_band     :    391.36s CPU    438.52s WALL (     104 calls)
     v_of_rho     :     22.90s CPU     24.06s WALL (     112 calls)
     newd         :     84.49s CPU    141.19s WALL (     112 calls)
     mix_rho      :      1.34s CPU      1.49s WALL (     104 calls)

     Called by c_bands:
     init_us_2    :     52.23s CPU     52.52s WALL (   17475 calls)
     cegterg      :   1751.45s CPU   1764.97s WALL (    7800 calls)

     Called by sum_band:
     sum_band:bec :      0.13s CPU      0.13s WALL (    7800 calls)
     addusdens    :     93.27s CPU    138.99s WALL (     104 calls)

     Called by *egterg:
     h_psi        :   1463.04s CPU   1466.38s WALL (   35719 calls)
     s_psi        :     45.93s CPU     46.14s WALL (   35719 calls)
     g_psi        :     17.07s CPU     17.13s WALL (   27844 calls)
     cdiaghg      :     49.58s CPU     58.01s WALL (   34519 calls)

     Called by h_psi:
     h_psi:pot    :   1457.21s CPU   1460.30s WALL (   35719 calls)
     h_psi:calbec :     45.74s CPU     45.86s WALL (   35719 calls)
     vloc_psi     :   1365.07s CPU   1367.97s WALL (   35719 calls)
     add_vuspsi   :     46.20s CPU     46.30s WALL (   35719 calls)

     General routines
     calbec       :     69.09s CPU     69.26s WALL (   48019 calls)
     fft          :      5.88s CPU      6.01s WALL (    1747 calls)
     ffts         :      0.23s CPU      0.24s WALL (     216 calls)
     fftw         :   1463.29s CPU   1466.43s WALL ( 1347372 calls)
     interpolate  :      0.62s CPU      0.75s WALL (     112 calls)
 
     Parallel routines
 
     PWSCF        :  42m52.16s CPU  45m19.43s WALL

 
   This run was terminated on:   0:58:52  13May2020            

=------------------------------------------------------------------------------=
   JOB DONE.
=------------------------------------------------------------------------------=
