
     Program PWSCF v.6.4.1 starts on 14May2020 at  0: 9:38 

     This program is part of the open-source Quantum ESPRESSO suite
     for quantum simulation of materials; please cite
         "P. Giannozzi et al., J. Phys.:Condens. Matter 21 395502 (2009);
         "P. Giannozzi et al., J. Phys.:Condens. Matter 29 465901 (2017);
          URL http://www.quantum-espresso.org", 
     in publications or presentations arising from this work. More details at
     http://www.quantum-espresso.org/quote

     Parallel version (MPI & OpenMP), running on       1 processor cores
     Number of MPI processes:                 1
     Threads/MPI process:                     1

     MPI processes distributed on     1 nodes
     Reading input from PTO_7.49_10_0.547.pw.in
Warning: card  &CELL ignored
Warning: card   CELL_DYNAMICS = 'BFGS', ignored
Warning: card  / ignored

     Current dimensions of program PWSCF are:
     Max number of different atomic species (ntypx) = 10
     Max number of k-points (npk) =  40000
     Max angular momentum in pseudopotentials (lmaxx) =  3
     Message from routine read_upf::
     Pseudo file Pb.pbe-dn-rrkjus_psl.0.2.2.UPF has been fixed on the fly.
To avoid this message in the future, permanently fix 
 your pseudo files following these instructions: 
https://gitlab.com/QEF/q-e/blob/master/upftools/how_to_fix_upf.md
     Message from routine read_upf::
     Pseudo file O.pbe-n-rrkjus_psl.0.1.UPF has been fixed on the fly.
To avoid this message in the future, permanently fix 
 your pseudo files following these instructions: 
https://gitlab.com/QEF/q-e/blob/master/upftools/how_to_fix_upf.md
               file Pb.pbe-dn-rrkjus_psl.0.2.2.UPF: wavefunction(s)  6S renormalized

     Subspace diagonalization in iterative solution of the eigenvalue problem:
     a serial algorithm will be used

 
     G-vector sticks info
     --------------------
     sticks:   dense  smooth     PW     G-vecs:    dense   smooth      PW
     Sum        3569    1433    421               160467    40651    6235
 


     bravais-lattice index     =            1
     lattice parameter (alat)  =       7.4900  a.u.
     unit-cell volume          =     420.1897 (a.u.)^3
     number of atoms/cell      =            5
     number of atomic types    =            3
     number of electrons       =        44.00
     number of Kohn-Sham states=           26
     kinetic-energy cutoff     =      80.0000  Ry
     charge density cutoff     =     800.0000  Ry
     convergence threshold     =      1.0E-08
     mixing beta               =       0.7000
     number of iterations used =            8  plain     mixing
     Exchange-correlation      = PBE ( 1  4  3  4 0 0)
     nstep                     =           50


     celldm(1)=   7.490000  celldm(2)=   0.000000  celldm(3)=   0.000000
     celldm(4)=   0.000000  celldm(5)=   0.000000  celldm(6)=   0.000000

     crystal axes: (cart. coord. in units of alat)
               a(1) = (   1.000000   0.000000   0.000000 )  
               a(2) = (   0.000000   1.000000   0.000000 )  
               a(3) = (   0.000000   0.000000   1.000000 )  

     reciprocal axes: (cart. coord. in units 2 pi/alat)
               b(1) = (  1.000000  0.000000  0.000000 )  
               b(2) = (  0.000000  1.000000  0.000000 )  
               b(3) = (  0.000000  0.000000  1.000000 )  


     PseudoPot. # 1 for Pb read from file:
     ./Pb.pbe-dn-rrkjus_psl.0.2.2.UPF
     MD5 check sum: 7afc420059c37d6888fc09c0f121e83f
     Pseudo is Ultrasoft + core correction, Zval = 14.0
     Generated using "atomic" code by A. Dal Corso v.5.0.2 svn rev. 9415
     Using radial grid of 1281 points,  6 beta functions with: 
                l(1) =   0
                l(2) =   0
                l(3) =   1
                l(4) =   1
                l(5) =   2
                l(6) =   2
     Q(r) pseudized with 0 coefficients 


     PseudoPot. # 2 for Ti read from file:
     ./Ti.pbe-sp-van_ak.UPF
     MD5 check sum: 8e4df49b7f0d34bbd5052bf3f5ea0213
     Pseudo is Ultrasoft, Zval = 12.0
     Generated by new atomic code, or converted to UPF format
     Using radial grid of  851 points,  6 beta functions with: 
                l(1) =   0
                l(2) =   0
                l(3) =   1
                l(4) =   1
                l(5) =   2
                l(6) =   2
     Q(r) pseudized with  8 coefficients,  rinner =    1.000   1.000   1.000
                                                       1.000   1.000

     PseudoPot. # 3 for O  read from file:
     ./O.pbe-n-rrkjus_psl.0.1.UPF
     MD5 check sum: e057bbcf3229fb5d8c36c0c92f9568b4
     Pseudo is Ultrasoft + core correction, Zval =  6.0
     Generated using "atomic" code by A. Dal Corso v.5.0.2 svn rev. 9415
     Using radial grid of 1095 points,  4 beta functions with: 
                l(1) =   0
                l(2) =   0
                l(3) =   1
                l(4) =   1
     Q(r) pseudized with 0 coefficients 


     atomic species   valence    mass     pseudopotential
        Pb            14.00   207.20000     Pb( 1.00)
        Ti            12.00    47.87000     Ti( 1.00)
        O              6.00    16.00000     O ( 1.00)

      8 Sym. Ops. (no inversion) found



   Cartesian axes

     site n.     atom                  positions (alat units)
         1           Pb  tau(   1) = (   0.0000000   0.0000000   0.0000000  )
         2           Ti  tau(   2) = (   0.5000000   0.5470000   0.5000000  )
         3           O   tau(   3) = (   0.5000000   0.5000000   0.0000000  )
         4           O   tau(   4) = (   0.5000000   0.0000000   0.5000000  )
         5           O   tau(   5) = (   0.0000000   0.5000000   0.5000000  )

     number of k points=    75  Marzari-Vanderbilt smearing, width (Ry)=  0.0250
                       cart. coord. in units 2pi/alat
        k(    1) = (   0.0500000   0.0500000   0.0500000), wk =   0.0160000
        k(    2) = (   0.0500000   0.0500000   0.1500000), wk =   0.0320000
        k(    3) = (   0.0500000   0.0500000   0.2500000), wk =   0.0320000
        k(    4) = (   0.0500000   0.0500000   0.3500000), wk =   0.0320000
        k(    5) = (   0.0500000   0.0500000   0.4500000), wk =   0.0320000
        k(    6) = (   0.0500000   0.1500000   0.1500000), wk =   0.0320000
        k(    7) = (   0.0500000   0.1500000   0.2500000), wk =   0.0320000
        k(    8) = (   0.0500000   0.1500000   0.3500000), wk =   0.0320000
        k(    9) = (   0.0500000   0.1500000   0.4500000), wk =   0.0320000
        k(   10) = (   0.0500000   0.2500000   0.2500000), wk =   0.0320000
        k(   11) = (   0.0500000   0.2500000   0.3500000), wk =   0.0320000
        k(   12) = (   0.0500000   0.2500000   0.4500000), wk =   0.0320000
        k(   13) = (   0.0500000   0.3500000   0.3500000), wk =   0.0320000
        k(   14) = (   0.0500000   0.3500000   0.4500000), wk =   0.0320000
        k(   15) = (   0.0500000   0.4500000   0.4500000), wk =   0.0320000
        k(   16) = (   0.1500000   0.1500000   0.1500000), wk =   0.0160000
        k(   17) = (   0.1500000   0.1500000   0.2500000), wk =   0.0320000
        k(   18) = (   0.1500000   0.1500000   0.3500000), wk =   0.0320000
        k(   19) = (   0.1500000   0.1500000   0.4500000), wk =   0.0320000
        k(   20) = (   0.1500000   0.2500000   0.2500000), wk =   0.0320000
        k(   21) = (   0.1500000   0.2500000   0.3500000), wk =   0.0320000
        k(   22) = (   0.1500000   0.2500000   0.4500000), wk =   0.0320000
        k(   23) = (   0.1500000   0.3500000   0.3500000), wk =   0.0320000
        k(   24) = (   0.1500000   0.3500000   0.4500000), wk =   0.0320000
        k(   25) = (   0.1500000   0.4500000   0.4500000), wk =   0.0320000
        k(   26) = (   0.2500000   0.2500000   0.2500000), wk =   0.0160000
        k(   27) = (   0.2500000   0.2500000   0.3500000), wk =   0.0320000
        k(   28) = (   0.2500000   0.2500000   0.4500000), wk =   0.0320000
        k(   29) = (   0.2500000   0.3500000   0.3500000), wk =   0.0320000
        k(   30) = (   0.2500000   0.3500000   0.4500000), wk =   0.0320000
        k(   31) = (   0.2500000   0.4500000   0.4500000), wk =   0.0320000
        k(   32) = (   0.3500000   0.3500000   0.3500000), wk =   0.0160000
        k(   33) = (   0.3500000   0.3500000   0.4500000), wk =   0.0320000
        k(   34) = (   0.3500000   0.4500000   0.4500000), wk =   0.0320000
        k(   35) = (   0.4500000   0.4500000   0.4500000), wk =   0.0160000
        k(   36) = (  -0.0500000   0.1500000   0.0500000), wk =   0.0160000
        k(   37) = (  -0.0500000   0.2500000   0.0500000), wk =   0.0160000
        k(   38) = (  -0.0500000   0.3500000   0.0500000), wk =   0.0160000
        k(   39) = (  -0.0500000   0.4500000   0.0500000), wk =   0.0160000
        k(   40) = (   0.1500000   0.0500000   0.1500000), wk =   0.0160000
        k(   41) = (  -0.0500000   0.2500000   0.1500000), wk =   0.0320000
        k(   42) = (   0.2500000   0.0500000   0.1500000), wk =   0.0320000
        k(   43) = (  -0.0500000   0.3500000   0.1500000), wk =   0.0320000
        k(   44) = (   0.3500000   0.0500000   0.1500000), wk =   0.0320000
        k(   45) = (  -0.0500000   0.4500000   0.1500000), wk =   0.0320000
        k(   46) = (   0.4500000   0.0500000   0.1500000), wk =   0.0320000
        k(   47) = (   0.2500000   0.0500000   0.2500000), wk =   0.0160000
        k(   48) = (  -0.0500000   0.3500000   0.2500000), wk =   0.0320000
        k(   49) = (   0.3500000   0.0500000   0.2500000), wk =   0.0320000
        k(   50) = (  -0.0500000   0.4500000   0.2500000), wk =   0.0320000
        k(   51) = (   0.4500000   0.0500000   0.2500000), wk =   0.0320000
        k(   52) = (   0.3500000   0.0500000   0.3500000), wk =   0.0160000
        k(   53) = (  -0.0500000   0.4500000   0.3500000), wk =   0.0320000
        k(   54) = (   0.4500000   0.0500000   0.3500000), wk =   0.0320000
        k(   55) = (   0.4500000   0.0500000   0.4500000), wk =   0.0160000
        k(   56) = (  -0.1500000   0.2500000   0.1500000), wk =   0.0160000
        k(   57) = (  -0.1500000   0.3500000   0.1500000), wk =   0.0160000
        k(   58) = (  -0.1500000   0.4500000   0.1500000), wk =   0.0160000
        k(   59) = (   0.2500000   0.1500000   0.2500000), wk =   0.0160000
        k(   60) = (  -0.1500000   0.3500000   0.2500000), wk =   0.0320000
        k(   61) = (   0.3500000   0.1500000   0.2500000), wk =   0.0320000
        k(   62) = (  -0.1500000   0.4500000   0.2500000), wk =   0.0320000
        k(   63) = (   0.4500000   0.1500000   0.2500000), wk =   0.0320000
        k(   64) = (   0.3500000   0.1500000   0.3500000), wk =   0.0160000
        k(   65) = (  -0.1500000   0.4500000   0.3500000), wk =   0.0320000
        k(   66) = (   0.4500000   0.1500000   0.3500000), wk =   0.0320000
        k(   67) = (   0.4500000   0.1500000   0.4500000), wk =   0.0160000
        k(   68) = (  -0.2500000   0.3500000   0.2500000), wk =   0.0160000
        k(   69) = (  -0.2500000   0.4500000   0.2500000), wk =   0.0160000
        k(   70) = (   0.3500000   0.2500000   0.3500000), wk =   0.0160000
        k(   71) = (  -0.2500000   0.4500000   0.3500000), wk =   0.0320000
        k(   72) = (   0.4500000   0.2500000   0.3500000), wk =   0.0320000
        k(   73) = (   0.4500000   0.2500000   0.4500000), wk =   0.0160000
        k(   74) = (  -0.3500000   0.4500000   0.3500000), wk =   0.0160000
        k(   75) = (   0.4500000   0.3500000   0.4500000), wk =   0.0160000

     Dense  grid:   160467 G-vectors     FFT dimensions: (  72,  72,  72)

     Smooth grid:    40651 G-vectors     FFT dimensions: (  45,  45,  45)

     Estimated max dynamical RAM per process >     759.22 MB

     Check: negative core charge=   -0.000006

     Initial potential from superposition of free atoms

     starting charge   42.99760, renormalised to   44.00000
     Starting wfcs are   31 randomized atomic wfcs

     total cpu time spent up to now is       11.3 secs

     Self-consistent Calculation

     iteration #  1     ecut=    80.00 Ry     beta= 0.70
     Davidson diagonalization with overlap
     ethr =  1.00E-02,  avg # of iterations =  2.0

     total cpu time spent up to now is       31.3 secs

     total energy              =    -364.40255314 Ry
     Harris-Foulkes estimate   =    -365.28734966 Ry
     estimated scf accuracy    <       1.11081978 Ry

     iteration #  2     ecut=    80.00 Ry     beta= 0.70
     Davidson diagonalization with overlap
     ethr =  2.52E-03,  avg # of iterations =  4.1

     total cpu time spent up to now is       58.7 secs

     total energy              =    -363.37599201 Ry
     Harris-Foulkes estimate   =    -365.75291326 Ry
     estimated scf accuracy    <       8.71341427 Ry

     iteration #  3     ecut=    80.00 Ry     beta= 0.70
     Davidson diagonalization with overlap
     ethr =  2.52E-03,  avg # of iterations =  4.9

     total cpu time spent up to now is       86.7 secs

     total energy              =    -364.93022797 Ry
     Harris-Foulkes estimate   =    -365.09799238 Ry
     estimated scf accuracy    <       0.45600529 Ry

     iteration #  4     ecut=    80.00 Ry     beta= 0.70
     Davidson diagonalization with overlap
     ethr =  1.04E-03,  avg # of iterations =  3.1

     total cpu time spent up to now is      106.5 secs

     total energy              =    -364.91595064 Ry
     Harris-Foulkes estimate   =    -364.96387377 Ry
     estimated scf accuracy    <       0.16322944 Ry

     iteration #  5     ecut=    80.00 Ry     beta= 0.70
     Davidson diagonalization with overlap
     ethr =  3.71E-04,  avg # of iterations =  4.4

     total cpu time spent up to now is      130.6 secs

     total energy              =    -364.95397282 Ry
     Harris-Foulkes estimate   =    -364.95413854 Ry
     estimated scf accuracy    <       0.00125944 Ry

     iteration #  6     ecut=    80.00 Ry     beta= 0.70
     Davidson diagonalization with overlap
     c_bands:  1 eigenvalues not converged
     ethr =  2.86E-06,  avg # of iterations =  4.9

     total cpu time spent up to now is      159.7 secs

     total energy              =    -364.95429473 Ry
     Harris-Foulkes estimate   =    -364.95471159 Ry
     estimated scf accuracy    <       0.00190389 Ry

     iteration #  7     ecut=    80.00 Ry     beta= 0.70
     Davidson diagonalization with overlap
     ethr =  2.86E-06,  avg # of iterations =  2.6

     total cpu time spent up to now is      179.9 secs

     total energy              =    -364.95423149 Ry
     Harris-Foulkes estimate   =    -364.95448511 Ry
     estimated scf accuracy    <       0.00067386 Ry

     iteration #  8     ecut=    80.00 Ry     beta= 0.70
     Davidson diagonalization with overlap
     ethr =  1.53E-06,  avg # of iterations =  3.5

     total cpu time spent up to now is      201.7 secs

     total energy              =    -364.95436664 Ry
     Harris-Foulkes estimate   =    -364.95437652 Ry
     estimated scf accuracy    <       0.00003944 Ry

     iteration #  9     ecut=    80.00 Ry     beta= 0.70
     Davidson diagonalization with overlap
     ethr =  8.96E-08,  avg # of iterations =  2.8

     total cpu time spent up to now is      224.0 secs

     total energy              =    -364.95436359 Ry
     Harris-Foulkes estimate   =    -364.95437466 Ry
     estimated scf accuracy    <       0.00002970 Ry

     iteration # 10     ecut=    80.00 Ry     beta= 0.70
     Davidson diagonalization with overlap
     ethr =  6.75E-08,  avg # of iterations =  2.4

     total cpu time spent up to now is      244.0 secs

     total energy              =    -364.95436696 Ry
     Harris-Foulkes estimate   =    -364.95436737 Ry
     estimated scf accuracy    <       0.00000128 Ry

     iteration # 11     ecut=    80.00 Ry     beta= 0.70
     Davidson diagonalization with overlap
     ethr =  2.91E-09,  avg # of iterations =  3.9

     total cpu time spent up to now is      270.0 secs

     total energy              =    -364.95436778 Ry
     Harris-Foulkes estimate   =    -364.95436782 Ry
     estimated scf accuracy    <       0.00000017 Ry

     iteration # 12     ecut=    80.00 Ry     beta= 0.70
     Davidson diagonalization with overlap
     ethr =  3.78E-10,  avg # of iterations =  1.7

     total cpu time spent up to now is      288.9 secs

     total energy              =    -364.95436777 Ry
     Harris-Foulkes estimate   =    -364.95436779 Ry
     estimated scf accuracy    <       0.00000005 Ry

     iteration # 13     ecut=    80.00 Ry     beta= 0.70
     Davidson diagonalization with overlap
     ethr =  1.20E-10,  avg # of iterations =  3.0

     total cpu time spent up to now is      310.0 secs

     End of self-consistent calculation

          k = 0.0500 0.0500 0.0500 (  5047 PWs)   bands (ev):

   -46.0667 -22.4105 -22.3101 -22.3100  -7.2251  -6.2421  -6.1270  -5.0630
    -5.0454  -5.0451  -4.9082  -4.8925   4.4565   6.8147   6.8607   7.0021
     8.7547   8.7806   9.1647   9.2591   9.5151   9.5321  12.5103  12.9779
    12.9863  14.7136

          k = 0.0500 0.0500 0.1500 (  5074 PWs)   bands (ev):

   -46.0665 -22.4101 -22.3207 -22.3097  -7.1444  -6.2077  -6.0973  -5.0707
    -5.0532  -5.0448  -4.9385  -4.8915   4.1604   6.8699   6.9435   7.1782
     8.5474   8.7249   9.1053   9.1729   9.3777   9.5093  12.8274  12.9872
    13.0764  14.9126

          k = 0.0500 0.0500 0.2500 (  5093 PWs)   bands (ev):

   -46.0661 -22.4094 -22.3379 -22.3091  -7.0099  -6.1469  -6.0501  -5.0835
    -5.0660  -5.0439  -4.9949  -4.8867   3.7921   6.8808   7.0513   7.1993
     8.4309   8.5259   9.0187   9.0987   9.3022   9.5756  12.9876  13.2895
    13.4003  14.9154

          k = 0.0500 0.0500 0.3500 (  5090 PWs)   bands (ev):

   -46.0658 -22.4088 -22.3549 -22.3084  -6.8697  -6.0759  -6.0066  -5.1022
    -5.0808  -5.0496  -5.0430  -4.8837   3.5034   6.5355   7.2315   7.3614
     8.1667   8.2820   8.9542   9.0260   9.4020   9.9472  12.9883  13.7076
    13.7976  14.2598

          k = 0.0500 0.0500 0.4500 (  5073 PWs)   bands (ev):

   -46.0656 -22.4083 -22.3654 -22.3080  -6.7799  -6.0190  -5.9885  -5.1293
    -5.0916  -5.0701  -5.0425  -4.8831   3.3532   6.2569   7.4192   7.6123
     7.8873   7.9855   8.9278   9.0156   9.4549  10.3875  12.9733  13.5472
    13.9549  14.0709

          k = 0.0500 0.1500 0.1500 (  5079 PWs)   bands (ev):

   -46.0663 -22.4210 -22.3203 -22.3093  -7.0510  -6.1864  -6.0696  -5.0709
    -5.0639  -5.0517  -4.9300  -4.9123   3.9384   6.8255   6.9294   7.3485
     8.3222   8.5497   8.9496   9.2272   9.3360   9.6000  12.8277  13.2363
    13.3046  15.0199

          k = 0.0500 0.1500 0.2500 (  5077 PWs)   bands (ev):

   -46.0659 -22.4203 -22.3374 -22.3086  -6.9209  -6.1335  -6.0295  -5.0873
    -5.0735  -5.0511  -4.9614  -4.9031   3.6438   6.7839   7.0487   7.2840
     8.1742   8.3874   8.8275   9.0856   9.2743   9.7568  13.2198  13.3039
    13.5714  15.0627

          k = 0.0500 0.1500 0.3500 (  5080 PWs)   bands (ev):

   -46.0656 -22.4196 -22.3544 -22.3080  -6.7877  -6.0792  -5.9854  -5.1064
    -5.0828  -5.0507  -4.9884  -4.8995   3.3968   6.5185   7.1585   7.3349
     7.9351   8.2307   8.7734   9.0716   9.2556  10.0013  13.2291  13.7016
    13.9164  14.4254

          k = 0.0500 0.1500 0.4500 (  5079 PWs)   bands (ev):

   -46.0654 -22.4191 -22.3649 -22.3076  -6.7038  -6.0451  -5.9551  -5.1215
    -5.0913  -5.0504  -4.9972  -4.9020   3.2636   6.2601   7.2714   7.4974
     7.7635   7.9759   8.8037   9.1366   9.2263  10.1984  13.2097  13.9263
    13.9579  14.1611

          k = 0.0500 0.2500 0.2500 (  5076 PWs)   bands (ev):

   -46.0656 -22.4378 -22.3366 -22.3080  -6.7757  -6.1151  -5.9865  -5.0917
    -5.0777  -5.0588  -4.9371  -4.9162   3.4190   6.6485   7.0584   7.1908
     7.9592   8.1121   8.5961   9.0682   9.4515   9.9048  13.2703  13.6270
    13.8450  15.0077

          k = 0.0500 0.2500 0.3500 (  5080 PWs)   bands (ev):

   -46.0652 -22.4370 -22.3536 -22.3073  -6.6633  -6.0809  -5.9324  -5.1015
    -5.0818  -5.0601  -4.9474  -4.8946   3.2277   6.4766   6.9434   7.2616
     7.7438   8.0851   8.5027   8.8846   9.5600   9.9137  13.5927  13.7017
    14.1023  14.7202

          k = 0.0500 0.2500 0.4500 (  5084 PWs)   bands (ev):

   -46.0650 -22.4365 -22.3640 -22.3069  -6.5986  -6.0586  -5.8902  -5.1079
    -5.0897  -5.0613  -4.9404  -4.8910   3.1193   6.2557   6.9665   7.2635
     7.6482   8.0882   8.4445   8.8730   9.5801   9.8807  13.5986  13.9237
    14.2977  14.5329

          k = 0.0500 0.3500 0.3500 (  5079 PWs)   bands (ev):

   -46.0649 -22.4543 -22.3528 -22.3067  -6.5620  -6.0484  -5.8725  -5.1003
    -5.0846  -5.0630  -4.9700  -4.8363   3.0643   6.2898   6.6874   7.2511
     7.6589   7.9453   8.3835   8.8300   9.5479   9.9454  13.6582  13.9938
    14.2941  15.0355

          k = 0.0500 0.3500 0.4500 (  5079 PWs)   bands (ev):

   -46.0647 -22.4538 -22.3632 -22.3063  -6.5321  -6.0155  -5.8181  -5.1014
    -5.0883  -5.0661  -4.9780  -4.8018   2.9771   6.1795   6.5452   7.3205
     7.4777   8.1218   8.2934   8.7069   9.3563  10.0142  13.8941  13.9890
    14.4577  15.0915

          k = 0.0500 0.4500 0.4500 (  5100 PWs)   bands (ev):

   -46.0645 -22.4644 -22.3626 -22.3058  -6.5143  -5.9570  -5.7692  -5.1039
    -5.0877  -5.0664  -5.0022  -4.7504   2.8905   5.9911   6.4321   7.3014
     7.4575   8.0599   8.3459   8.6381   9.0411  10.1905  13.8775  14.2246
    14.5680  15.4568

          k = 0.1500 0.1500 0.1500 (  5095 PWs)   bands (ev):

   -46.0661 -22.4206 -22.3200 -22.3197  -6.9756  -6.1613  -6.0465  -5.0793
    -5.0695  -5.0513  -4.9271  -4.9132   3.7903   6.7957   6.8499   7.4579
     8.1741   8.3237   8.9140   9.2917   9.4341   9.4783  13.0524  13.2854
    13.3208  15.5060

          k = 0.1500 0.1500 0.2500 (  5084 PWs)   bands (ev):

   -46.0657 -22.4199 -22.3369 -22.3192  -6.8537  -6.1187  -6.0071  -5.0936
    -5.0708  -5.0477  -4.9437  -4.9032   3.5653   6.7412   6.8419   7.3078
     7.9594   8.1363   8.9454   9.2125   9.3820   9.6655  13.2484  13.4282
    13.5664  15.1398

          k = 0.1500 0.1500 0.3500 (  5082 PWs)   bands (ev):

   -46.0654 -22.4192 -22.3539 -22.3185  -6.7332  -6.0731  -5.9636  -5.1062
    -5.0636  -5.0417  -4.9670  -4.8995   3.3609   6.5174   6.8460   7.1880
     7.7612   8.1841   8.7117   9.2521   9.3927   9.8746  13.1920  13.7527
    13.9062  14.6335

          k = 0.1500 0.1500 0.4500 (  5084 PWs)   bands (ev):

   -46.0652 -22.4187 -22.3644 -22.3181  -6.6604  -6.0436  -5.9330  -5.1112
    -5.0580  -5.0348  -4.9832  -4.9032   3.2456   6.2660   6.8434   7.2325
     7.6689   8.2973   8.4649   9.3248   9.3769   9.9806  13.1262  13.9689
    14.1435  14.3907

          k = 0.1500 0.2500 0.2500 (  5081 PWs)   bands (ev):

   -46.0654 -22.4373 -22.3362 -22.3185  -6.7061  -6.1059  -5.9889  -5.0957
    -5.0802  -5.0344  -4.9184  -4.8985   3.4123   6.5895   6.7095   7.1345
     7.6755   7.9604   8.8687   9.2620   9.4962   9.7557  13.3064  13.6164
    13.7981  14.9459

          k = 0.1500 0.2500 0.3500 (  5080 PWs)   bands (ev):

   -46.0650 -22.4366 -22.3531 -22.3178  -6.5991  -6.0886  -5.9412  -5.0986
    -5.0695  -5.0244  -4.9209  -4.8790   3.2719   6.4492   6.6687   6.8991
     7.3802   8.0076   8.9110   9.0840   9.5627   9.7564  13.4349  13.7317
    14.0418  14.9032

          k = 0.1500 0.2500 0.4500 (  5077 PWs)   bands (ev):

   -46.0648 -22.4361 -22.3636 -22.3174  -6.5387  -6.0813  -5.8998  -5.0974
    -5.0597  -5.0217  -4.9143  -4.8775   3.1866   6.2546   6.6349   6.8264
     7.2917   8.1051   8.7280   9.1689   9.4987   9.7367  13.4445  13.9118
    14.2403  14.9336

          k = 0.1500 0.3500 0.3500 (  5081 PWs)   bands (ev):

   -46.0647 -22.4539 -22.3523 -22.3172  -6.4853  -6.0752  -5.9165  -5.0953
    -5.0626  -5.0035  -4.9282  -4.8208   3.1687   6.2529   6.5783   6.6649
     7.0898   7.9774   8.7698   9.1117   9.4011   9.8996  13.5703  13.9065
    14.2092  15.2077

          k = 0.1500 0.3500 0.4500 (  5079 PWs)   bands (ev):

   -46.0645 -22.4534 -22.3627 -22.3167  -6.4547  -6.0651  -5.8667  -5.0910
    -5.0437  -5.0076  -4.9303  -4.7864   3.1114   6.1639   6.4700   6.6323
     6.8914   8.0481   8.7192   9.0182   9.1899  10.0035  13.8029  13.9064
    14.3605  15.4297

          k = 0.1500 0.4500 0.4500 (  5073 PWs)   bands (ev):

   -46.0643 -22.4640 -22.3622 -22.3163  -6.4323  -6.0185  -5.8470  -5.0884
    -5.0245  -4.9908  -4.9547  -4.7337   3.0578   5.9711   6.3894   6.6240
     6.7543   8.0502   8.4671   8.9239   9.1350  10.1719  13.8623  14.1031
    14.4605  15.7665

          k = 0.2500 0.2500 0.2500 (  5070 PWs)   bands (ev):

   -46.0650 -22.4366 -22.3357 -22.3353  -6.6020  -6.0887  -5.9839  -5.0850
    -5.0807  -5.0035  -4.8953  -4.8722   3.3828   6.4062   6.4907   6.9815
     7.4524   7.5342   9.0474   9.5009   9.5134   9.6520  13.3092  13.7656
    13.7736  14.9750

          k = 0.2500 0.2500 0.3500 (  5072 PWs)   bands (ev):

   -46.0647 -22.4359 -22.3524 -22.3348  -6.5149  -6.0767  -5.9536  -5.0793
    -5.0644  -4.9673  -4.8781  -4.8539   3.3317   6.2721   6.3473   6.6576
     7.1817   7.4994   8.9121   9.4382   9.5474   9.7945  13.3831  13.8209
    14.0264  15.1762

          k = 0.2500 0.2500 0.4500 (  5073 PWs)   bands (ev):

   -46.0645 -22.4354 -22.3628 -22.3344  -6.4721  -6.0754  -5.9158  -5.0750
    -5.0524  -4.9323  -4.8734  -4.8501   3.2913   6.1761   6.2556   6.4435
     7.1164   7.5408   8.6860   9.4640   9.5044   9.8531  13.4924  13.9062
    14.2223  15.4219

          k = 0.2500 0.3500 0.3500 (  5057 PWs)   bands (ev):

   -46.0643 -22.4531 -22.3516 -22.3341  -6.3747  -6.0999  -5.9763  -5.0719
    -5.0456  -4.9268  -4.8527  -4.7912   3.3494   6.0272   6.1790   6.4398
     6.8647   7.3829   8.4556   9.5161   9.7083   9.8937  13.5366  13.9585
    14.1583  15.5097

          k = 0.2500 0.3500 0.4500 (  5063 PWs)   bands (ev):

   -46.0641 -22.4527 -22.3620 -22.3337  -6.3448  -6.1153  -5.9336  -5.0651
    -5.0291  -4.9006  -4.8413  -4.7573   3.3603   6.0168   6.0563   6.2428
     6.6801   7.4095   8.0998   9.5350   9.6974  10.0067  13.7796  13.9459
    14.3038  15.8490

          k = 0.2500 0.4500 0.4500 (  5070 PWs)   bands (ev):

   -46.0639 -22.4633 -22.3615 -22.3332  -6.2999  -6.0999  -5.9450  -5.0608
    -5.0109  -4.8796  -4.8237  -4.7022   3.3876   5.8334   6.0692   6.1187
     6.4898   7.3838   7.6399   9.5309   9.7426  10.1544  13.9217  14.0804
    14.3946  16.1850

          k = 0.3500 0.3500 0.3500 (  5055 PWs)   bands (ev):

   -46.0640 -22.4524 -22.3510 -22.3508  -6.3088  -6.0879  -6.0133  -5.0474
    -5.0340  -4.8534  -4.7834  -4.7545   3.5428   5.7658   5.8683   6.2988
     6.8151   6.8757   7.8202   9.7903   9.8872  10.0267  13.7034  14.1326
    14.1346  15.8796

          k = 0.3500 0.3500 0.4500 (  5056 PWs)   bands (ev):

   -46.0638 -22.4519 -22.3613 -22.3505  -6.2998  -6.0887  -5.9910  -5.0372
    -5.0229  -4.8021  -4.7554  -4.7229   3.6643   5.6644   5.7234   6.1321
     6.6447   6.8580   7.3342   9.8461   9.9611  10.1425  13.9347  14.0889
    14.2942  16.2581

          k = 0.3500 0.4500 0.4500 (  5051 PWs)   bands (ev):

   -46.0636 -22.4625 -22.3608 -22.3500  -6.1950  -6.1406  -6.0240  -5.0336
    -5.0068  -4.7739  -4.7073  -4.6639   3.8582   5.5022   5.6545   5.9750
     6.4575   6.7065   6.8300   9.9416  10.1235  10.1499  14.0951  14.2026
    14.3649  16.6212

          k = 0.4500 0.4500 0.4500 (  5034 PWs)   bands (ev):

   -46.0634 -22.4621 -22.3604 -22.3604  -6.2176  -6.0778  -6.0634  -5.0183
    -5.0032  -4.7112  -4.6418  -4.6357   4.3549   5.3228   5.4040   5.8851
     5.9478   6.4415   6.5617  10.1247  10.1378  10.3038  14.2696  14.3410
    14.3441  16.9759

          k =-0.0500 0.1500 0.0500 (  5074 PWs)   bands (ev):

   -46.0665 -22.4214 -22.3097 -22.3096  -7.1298  -6.2183  -6.0931  -5.0625
    -5.0545  -5.0519  -4.9281  -4.9040   4.1529   6.8615   6.8632   7.1889
     8.5695   8.5939   9.1105   9.1522   9.5398   9.5597  12.5120  13.2256
    13.2430  14.7158

          k =-0.0500 0.2500 0.0500 (  5093 PWs)   bands (ev):

   -46.0661 -22.4390 -22.3090 -22.3090  -6.9670  -6.1838  -6.0331  -5.0714
    -5.0623  -5.0610  -4.9886  -4.8989   3.7701   6.8300   6.9456   7.1186
     8.3207   8.3418   9.1021   9.2206   9.6087   9.6743  12.5147  13.6092
    13.6347  14.7200

          k =-0.0500 0.3500 0.0500 (  5090 PWs)   bands (ev):

   -46.0658 -22.4565 -22.3084 -22.3083  -6.7892  -6.1581  -5.9642  -5.1013
    -5.0704  -5.0606  -5.0448  -4.8962   3.4655   6.4540   7.0354   7.1688
     8.1006   8.1019   9.0407   9.4537   9.6620  10.0523  12.5164  13.9784
    14.0092  14.3451

          k =-0.0500 0.4500 0.0500 (  5073 PWs)   bands (ev):

   -46.0656 -22.4673 -22.3079 -22.3079  -6.6671  -6.1510  -5.9153  -5.1390
    -5.0750  -5.0667  -5.0600  -4.8958   3.3049   6.1478   7.0973   7.2632
     7.9376   7.9700   9.0008   9.5445   9.6972  10.5076  12.5146  13.6043
    14.2007  14.2389

          k = 0.1500 0.0500 0.1500 (  5079 PWs)   bands (ev):

   -46.0663 -22.4097 -22.3204 -22.3201  -7.0681  -6.1795  -6.0661  -5.0784
    -5.0536  -5.0512  -4.9392  -4.9053   3.9482   6.8208   7.0096   7.3271
     8.3617   8.4997   8.9833   9.2052   9.3961   9.5294  13.0228  13.0883
    13.1156  15.2538

          k =-0.0500 0.2500 0.1500 (  5077 PWs)   bands (ev):

   -46.0659 -22.4385 -22.3196 -22.3086  -6.8932  -6.1553  -6.0207  -5.0839
    -5.0694  -5.0595  -4.9546  -4.9138   3.6298   6.7255   6.9799   7.2691
     8.0667   8.3237   8.8496   9.2604   9.3941   9.8050  12.8261  13.6147
    13.6647  15.0411

          k = 0.2500 0.0500 0.1500 (  5077 PWs)   bands (ev):

   -46.0659 -22.4090 -22.3374 -22.3196  -6.9438  -6.1274  -6.0160  -5.0893
    -5.0628  -5.0512  -4.9697  -4.9051   3.6546   6.8063   7.0604   7.2850
     8.1543   8.2594   8.9060   9.1944   9.3952   9.6485  13.0625  13.3809
    13.4739  15.2713

          k =-0.0500 0.3500 0.1500 (  5080 PWs)   bands (ev):

   -46.0656 -22.4560 -22.3189 -22.3079  -6.7247  -6.1292  -5.9660  -5.1089
    -5.0692  -5.0652  -4.9850  -4.9108   3.3672   6.4101   6.9858   7.2661
     7.8653   8.1225   8.9348   9.2498   9.4569  10.1054  12.8183  13.9727
    14.0165  14.5259

          k = 0.3500 0.0500 0.1500 (  5080 PWs)   bands (ev):

   -46.0656 -22.4084 -22.3544 -22.3190  -6.8194  -6.0615  -5.9699  -5.1048
    -5.0683  -5.0507  -5.0078  -4.9020   3.4071   6.5371   7.0886   7.3858
     7.8971   8.2454   8.6218   9.2439   9.4227   9.9552  13.0424  13.7637
    13.8469  14.4782

          k =-0.0500 0.4500 0.1500 (  5079 PWs)   bands (ev):

   -46.0654 -22.4667 -22.3185 -22.3075  -6.6129  -6.1169  -5.9290  -5.1310
    -5.0718  -5.0676  -4.9953  -4.9134   3.2235   6.1242   6.9900   7.3612
     7.7384   7.9836   9.0340   9.2276   9.4968  10.3387  12.8044  13.9915
    14.2109  14.2609

          k = 0.4500 0.0500 0.1500 (  5079 PWs)   bands (ev):

   -46.0654 -22.4079 -22.3649 -22.3186  -6.7434  -6.0046  -5.9508  -5.1202
    -5.0720  -5.0504  -5.0259  -4.9029   3.2732   6.2653   7.1923   7.4755
     7.8358   8.0546   8.5373   9.2319   9.4603  10.2246  12.9992  13.9762
    14.0152  14.0967

          k = 0.2500 0.0500 0.2500 (  5076 PWs)   bands (ev):

   -46.0656 -22.4084 -22.3369 -22.3365  -6.8431  -6.0829  -5.9604  -5.0891
    -5.0651  -5.0569  -4.9425  -4.9325   3.4451   6.7605   7.0014   7.2763
     7.8419   7.9646   8.9396   9.0348   9.6001   9.7058  13.3036  13.4369
    13.7372  15.1048

          k =-0.0500 0.3500 0.2500 (  5080 PWs)   bands (ev):

   -46.0652 -22.4552 -22.3359 -22.3073  -6.6323  -6.0892  -5.9376  -5.1029
    -5.0795  -5.0634  -4.9496  -4.8967   3.2122   6.3542   6.9654   7.1743
     7.7764   8.0331   8.4819   9.1127   9.5143  10.0141  13.2572  13.9955
    14.1086  14.8079

          k = 0.3500 0.0500 0.2500 (  5080 PWs)   bands (ev):

   -46.0652 -22.4077 -22.3537 -22.3360  -6.7537  -6.0140  -5.9073  -5.0944
    -5.0673  -5.0583  -4.9550  -4.9239   3.2525   6.5424   6.8979   7.2678
     7.6741   7.9554   8.6172   9.1166   9.6201   9.8878  13.3277  13.7686
    14.0142  14.7780

          k =-0.0500 0.4500 0.2500 (  5084 PWs)   bands (ev):

   -46.0650 -22.4659 -22.3354 -22.3069  -6.5487  -6.0609  -5.9076  -5.1159
    -5.0789  -5.0697  -4.9481  -4.8895   3.0934   6.0843   6.9463   7.1598
     7.7242   7.9720   8.4963   9.1556   9.4874  10.0639  13.2455  14.2215
    14.2612  14.6928

          k = 0.4500 0.0500 0.2500 (  5084 PWs)   bands (ev):

   -46.0650 -22.4073 -22.3641 -22.3355  -6.7059  -5.9481  -5.8841  -5.1034
    -5.0697  -5.0615  -4.9471  -4.9284   3.1422   6.2723   6.9830   7.1368
     7.7176   8.0716   8.3061   9.1992   9.5526  10.0144  13.3056  14.0238
    14.2023  14.5723

          k = 0.3500 0.0500 0.3500 (  5079 PWs)   bands (ev):

   -46.0649 -22.4070 -22.3530 -22.3527  -6.7096  -5.9307  -5.8431  -5.0888
    -5.0722  -5.0569  -4.9724  -4.8832   3.1015   6.4754   6.6290   7.2225
     7.3994   7.9830   8.6309   8.8619   9.5777  10.0127  13.6641  13.8076
    14.2032  15.0313

          k =-0.0500 0.4500 0.3500 (  5079 PWs)   bands (ev):

   -46.0647 -22.4650 -22.3523 -22.3062  -6.5183  -5.9997  -5.8350  -5.1059
    -5.0854  -5.0675  -4.9817  -4.8007   2.9666   6.0395   6.6505   7.1838
     7.6679   7.9303   8.3229   8.8458   9.3400  10.0665  13.6490  14.2259
    14.4308  15.2372

          k = 0.4500 0.0500 0.3500 (  5079 PWs)   bands (ev):

   -46.0647 -22.4066 -22.3633 -22.3524  -6.6927  -5.8530  -5.8103  -5.0915
    -5.0706  -5.0641  -4.9836  -4.8536   3.0110   6.2348   6.6411   7.0989
     7.3690   8.1514   8.3994   8.8700   9.3964  10.1605  13.7172  14.0188
    14.3388  15.1195

          k = 0.4500 0.0500 0.4500 (  5100 PWs)   bands (ev):

   -46.0645 -22.4062 -22.3628 -22.3627  -6.6938  -5.7757  -5.7624  -5.0904
    -5.0685  -5.0641  -5.0119  -4.8076   2.9302   6.1148   6.5199   7.1316
     7.1515   8.3000   8.4613   8.6188   9.1556  10.3323  13.9976  14.0245
    14.4265  15.3980

          k =-0.1500 0.2500 0.1500 (  5084 PWs)   bands (ev):

   -46.0657 -22.4381 -22.3193 -22.3191  -6.8205  -6.1338  -6.0137  -5.0922
    -5.0779  -5.0463  -4.9300  -4.9145   3.5496   6.7199   6.7410   7.3193
     7.9772   8.1420   8.7569   9.3472   9.4910   9.6933  13.0235  13.6155
    13.6697  15.1639

          k =-0.1500 0.3500 0.1500 (  5082 PWs)   bands (ev):

   -46.0654 -22.4555 -22.3186 -22.3184  -6.6570  -6.1093  -5.9794  -5.1115
    -5.0745  -5.0331  -4.9518  -4.9114   3.3291   6.4123   6.6696   7.2229
     7.8526   8.1191   8.6100   9.3618   9.5399   9.9604  12.9614  13.9588
    13.9881  14.6833

          k =-0.1500 0.4500 0.1500 (  5084 PWs)   bands (ev):

   -46.0652 -22.4662 -22.3181 -22.3180  -6.5506  -6.0965  -5.9573  -5.1215
    -5.0723  -5.0178  -4.9681  -4.9166   3.2034   6.1274   6.6182   7.2710
     7.7999   8.0833   8.5749   9.3584   9.5697  10.0913  12.9051  14.1783
    14.1861  14.4694

          k = 0.2500 0.1500 0.2500 (  5081 PWs)   bands (ev):

   -46.0654 -22.4192 -22.3364 -22.3360  -6.7517  -6.0857  -5.9693  -5.0914
    -5.0766  -5.0333  -4.9229  -4.9056   3.4293   6.6361   6.7491   7.1251
     7.6118   7.9347   9.0462   9.2406   9.5538   9.6175  13.3596  13.5442
    13.7087  14.9549

          k =-0.1500 0.3500 0.2500 (  5080 PWs)   bands (ev):

   -46.0650 -22.4547 -22.3355 -22.3178  -6.5594  -6.0876  -5.9693  -5.1024
    -5.0760  -5.0132  -4.9214  -4.8816   3.2550   6.3418   6.5704   6.9311
     7.5502   7.9685   8.6482   9.3600   9.5569   9.8103  13.2415  13.9266
    14.0485  14.9356

          k = 0.3500 0.1500 0.2500 (  5080 PWs)   bands (ev):

   -46.0650 -22.4185 -22.3532 -22.3355  -6.6626  -6.0389  -5.9277  -5.0931
    -5.0690  -5.0131  -4.9222  -4.9023   3.2887   6.4922   6.6498   6.8661
     7.4283   7.9298   8.9034   9.2502   9.5121   9.7971  13.3344  13.7697
    13.9791  14.9107

          k =-0.1500 0.4500 0.2500 (  5077 PWs)   bands (ev):

   -46.0648 -22.4654 -22.3350 -22.3174  -6.4733  -6.0663  -5.9593  -5.1053
    -5.0715  -4.9939  -4.9291  -4.8745   3.1585   6.0916   6.4555   6.9227
     7.5362   8.0430   8.4758   9.4130   9.5194   9.8206  13.2192  14.1472
    14.2345  15.0163

          k = 0.4500 0.1500 0.2500 (  5077 PWs)   bands (ev):

   -46.0648 -22.4181 -22.3636 -22.3351  -6.6161  -6.0031  -5.8977  -5.0928
    -5.0620  -4.9953  -4.9223  -4.9081   3.2025   6.2682   6.5762   6.8269
     7.3938   7.9886   8.7265   9.3080   9.4205   9.8731  13.3159  13.9661
    14.1859  14.9430

          k = 0.3500 0.1500 0.3500 (  5081 PWs)   bands (ev):

   -46.0647 -22.4178 -22.3525 -22.3523  -6.6178  -5.9726  -5.8903  -5.0837
    -5.0616  -4.9907  -4.9190  -4.8674   3.2018   6.4453   6.4755   6.6426
     7.0504   7.9096   8.9362   9.1288   9.3145  10.0154  13.5642  13.8213
    14.1393  15.1935

          k =-0.1500 0.4500 0.3500 (  5079 PWs)   bands (ev):

   -46.0645 -22.4645 -22.3518 -22.3167  -6.4362  -6.0375  -5.9044  -5.0941
    -5.0538  -4.9805  -4.9475  -4.7847   3.0998   6.0216   6.5075   6.5820
     7.0628   8.0039   8.5780   9.1032   9.2723  10.0179  13.6036  14.1176
    14.3483  15.4988

          k = 0.4500 0.1500 0.3500 (  5079 PWs)   bands (ev):

   -46.0645 -22.4174 -22.3628 -22.3519  -6.6023  -5.9201  -5.8628  -5.0800
    -5.0495  -4.9763  -4.9297  -4.8392   3.1426   6.2259   6.4811   6.5395
     6.9372   7.9464   8.7801   9.0985   9.1894  10.1500  13.6693  13.9570
    14.2856  15.4354

          k = 0.4500 0.1500 0.4500 (  5073 PWs)   bands (ev):

   -46.0643 -22.4169 -22.3623 -22.3623  -6.6051  -5.8532  -5.8411  -5.0749
    -5.0281  -4.9632  -4.9503  -4.7931   3.0978   6.1043   6.4495   6.5317
     6.6396   7.9685   8.5781   9.0600   9.0696  10.3267  13.9300  13.9754
    14.3775  15.7429

          k =-0.2500 0.3500 0.2500 (  5072 PWs)   bands (ev):

   -46.0647 -22.4539 -22.3349 -22.3346  -6.4534  -6.0858  -5.9989  -5.0862
    -5.0656  -4.9649  -4.8784  -4.8455   3.3122   6.1749   6.3341   6.6450
     7.3870   7.4125   8.7858   9.5222   9.6351   9.7207  13.3129  13.9218
    14.0424  15.1865

          k =-0.2500 0.4500 0.2500 (  5073 PWs)   bands (ev):

   -46.0645 -22.4646 -22.3344 -22.3342  -6.3670  -6.0757  -6.0082  -5.0847
    -5.0562  -4.9224  -4.8854  -4.8313   3.2586   6.0385   6.1137   6.5732
     7.3662   7.4349   8.5546   9.4750   9.6640   9.7740  13.3703  14.0760
    14.2397  15.4680

          k = 0.3500 0.2500 0.3500 (  5057 PWs)   bands (ev):

   -46.0643 -22.4352 -22.3518 -22.3516  -6.4658  -6.0328  -5.9562  -5.0601
    -5.0531  -4.9127  -4.8340  -4.8326   3.3712   6.1082   6.1109   6.4576
     6.9074   7.2946   8.4921   9.5528   9.5952  10.0205  13.5370  13.9287
    14.1232  15.5028

          k =-0.2500 0.4500 0.3500 (  5063 PWs)   bands (ev):

   -46.0641 -22.4638 -22.3512 -22.3336  -6.3063  -6.0903  -5.9917  -5.0683
    -5.0314  -4.8936  -4.8460  -4.7532   3.3453   5.8561   6.1159   6.2548
     6.8034   7.3673   8.0858   9.5088   9.7459   9.9937  13.6692  14.0785
    14.3041  15.8661

          k = 0.4500 0.2500 0.3500 (  5063 PWs)   bands (ev):

   -46.0641 -22.4347 -22.3621 -22.3512  -6.4531  -6.0110  -5.9321  -5.0547
    -5.0382  -4.8666  -4.8344  -4.8044   3.3827   5.9710   6.0968   6.2193
     6.7909   7.2916   8.1363   9.5814   9.6015  10.1439  13.7342  13.9629
    14.2698  15.8440

          k = 0.4500 0.2500 0.4500 (  5070 PWs)   bands (ev):

   -46.0639 -22.4343 -22.3616 -22.3616  -6.4595  -5.9515  -5.9401  -5.0477
    -5.0221  -4.8300  -4.8190  -4.7645   3.4270   5.9395   5.9614   6.0949
     6.5605   7.2648   7.7134   9.6145   9.6187  10.3179  13.9570  14.0184
    14.3458  16.1675

          k =-0.3500 0.4500 0.3500 (  5056 PWs)   bands (ev):

   -46.0638 -22.4630 -22.3505 -22.3504  -6.2035  -6.1264  -6.0453  -5.0444
    -5.0176  -4.8199  -4.7493  -4.7079   3.6416   5.5743   5.8618   6.0560
     6.6726   6.8687   7.3271   9.8757  10.0108  10.0327  13.8814  14.1617
    14.3038  16.2599

          k = 0.4500 0.3500 0.4500 (  5051 PWs)   bands (ev):

   -46.0636 -22.4515 -22.3609 -22.3608  -6.3115  -6.0320  -6.0200  -5.0202
    -5.0196  -4.7393  -4.7050  -4.7024   3.8910   5.5402   5.5443   6.0128
     6.5598   6.6804   6.7707   9.9698   9.9787  10.3091  14.1203  14.1850
    14.3324  16.6166

     the Fermi energy is    10.4073 ev

!    total energy              =    -364.95436779 Ry
     Harris-Foulkes estimate   =    -364.95436779 Ry
     estimated scf accuracy    <          5.3E-09 Ry

     The total energy is the sum of the following terms:

     one-electron contribution =     -83.61229230 Ry
     hartree contribution      =      71.21290970 Ry
     xc contribution           =     -85.83274580 Ry
     ewald contribution        =    -266.72834741 Ry
     smearing contrib. (-TS)   =       0.00610803 Ry

     convergence has been achieved in  13 iterations

     Forces acting on atoms (cartesian axes, Ry/au):

     atom    1 type  1   force =     0.00000000    0.01816176    0.00000000
     atom    2 type  2   force =     0.00000000   -0.03685910    0.00000000
     atom    3 type  3   force =     0.00000000    0.00335804    0.00000000
     atom    4 type  3   force =     0.00000000    0.01198125    0.00000000
     atom    5 type  3   force =     0.00000000    0.00335804    0.00000000

     Total force =     0.012888     Total SCF correction =     0.000019


     Computing stress (Cartesian axis) and pressure

          total   stress  (Ry/bohr**3)                   (kbar)     P=   18.29
   0.00002792   0.00000000   0.00000000          4.11      0.00      0.00
   0.00000000   0.00031714   0.00000000          0.00     46.65      0.00
   0.00000000   0.00000000   0.00002792          0.00      0.00      4.11


     BFGS Geometry Optimization

     number of scf cycles    =   1
     number of bfgs steps    =   0

     energy   new            =    -364.9543677855 Ry

     new trust radius        =       0.0119812512 bohr
     new conv_thr            =       0.0000000100 Ry


ATOMIC_POSITIONS (crystal)
Pb       0.000000000   0.000000000   0.000000000    0   0   0
Ti       0.500000000   0.547000000   0.500000000    0   0   0
O        0.500000000   0.500448337   0.000000000
O        0.500000000   0.001599633   0.500000000
O        0.000000000   0.500448337   0.500000000



     Writing output data file PbTiO3.save/
     NEW-OLD atomic charge density approx. for the potential

     Check: negative core charge=   -0.000006

     total cpu time spent up to now is      327.3 secs

     Self-consistent Calculation

     iteration #  1     ecut=    80.00 Ry     beta= 0.70
     Davidson diagonalization with overlap
     ethr =  1.00E-06,  avg # of iterations =  3.2

     Threshold (ethr) on eigenvalues was too large:
     Diagonalizing with lowered threshold

     Davidson diagonalization with overlap
     ethr =  8.20E-08,  avg # of iterations =  1.1

     total cpu time spent up to now is      370.8 secs

     total energy              =    -364.95450022 Ry
     Harris-Foulkes estimate   =    -364.95452431 Ry
     estimated scf accuracy    <       0.00003625 Ry

     iteration #  2     ecut=    80.00 Ry     beta= 0.70
     Davidson diagonalization with overlap
     ethr =  8.24E-08,  avg # of iterations =  4.0

     total cpu time spent up to now is      395.4 secs

     total energy              =    -364.95449232 Ry
     Harris-Foulkes estimate   =    -364.95453087 Ry
     estimated scf accuracy    <       0.00009661 Ry

     iteration #  3     ecut=    80.00 Ry     beta= 0.70
     Davidson diagonalization with overlap
     ethr =  8.24E-08,  avg # of iterations =  3.1

     total cpu time spent up to now is      418.9 secs

     total energy              =    -364.95451205 Ry
     Harris-Foulkes estimate   =    -364.95451530 Ry
     estimated scf accuracy    <       0.00000978 Ry

     iteration #  4     ecut=    80.00 Ry     beta= 0.70
     Davidson diagonalization with overlap
     ethr =  2.22E-08,  avg # of iterations =  2.7

     total cpu time spent up to now is      439.8 secs

     total energy              =    -364.95451349 Ry
     Harris-Foulkes estimate   =    -364.95451366 Ry
     estimated scf accuracy    <       0.00000033 Ry

     iteration #  5     ecut=    80.00 Ry     beta= 0.70
     Davidson diagonalization with overlap
     ethr =  7.50E-10,  avg # of iterations =  3.9

     total cpu time spent up to now is      464.8 secs

     total energy              =    -364.95451359 Ry
     Harris-Foulkes estimate   =    -364.95451367 Ry
     estimated scf accuracy    <       0.00000019 Ry

     iteration #  6     ecut=    80.00 Ry     beta= 0.70
     Davidson diagonalization with overlap
     ethr =  4.24E-10,  avg # of iterations =  2.9

     total cpu time spent up to now is      486.4 secs

     total energy              =    -364.95451363 Ry
     Harris-Foulkes estimate   =    -364.95451364 Ry
     estimated scf accuracy    <       0.00000003 Ry

     iteration #  7     ecut=    80.00 Ry     beta= 0.70
     Davidson diagonalization with overlap
     ethr =  6.79E-11,  avg # of iterations =  2.3

     total cpu time spent up to now is      507.1 secs

     End of self-consistent calculation

          k = 0.0500 0.0500 0.0500 (  5047 PWs)   bands (ev):

   -46.0795 -22.4153 -22.3229 -22.3229  -7.2253  -6.2396  -6.1300  -5.0604
    -5.0436  -5.0433  -4.9061  -4.8912   4.4584   6.8154   6.8591   6.9996
     8.7732   8.8001   9.1635   9.2691   9.5175   9.5295  12.5003  12.9512
    12.9590  14.7008

          k = 0.0500 0.0500 0.1500 (  5074 PWs)   bands (ev):

   -46.0793 -22.4149 -22.3335 -22.3225  -7.1443  -6.2054  -6.1003  -5.0680
    -5.0513  -5.0429  -4.9365  -4.8900   4.1624   6.8701   6.9400   7.1769
     8.5645   8.7394   9.1103   9.1745   9.3783   9.5125  12.8178  12.9601
    13.0550  14.8913

          k = 0.0500 0.0500 0.2500 (  5093 PWs)   bands (ev):

   -46.0790 -22.4143 -22.3507 -22.3219  -7.0092  -6.1451  -6.0530  -5.0809
    -5.0641  -5.0420  -4.9929  -4.8852   3.7941   6.8781   7.0504   7.1976
     8.4411   8.5324   9.0269   9.1021   9.3070   9.5793  12.9605  13.2802
    13.3838  14.8932

          k = 0.0500 0.0500 0.3500 (  5090 PWs)   bands (ev):

   -46.0786 -22.4136 -22.3677 -22.3213  -6.8683  -6.0750  -6.0094  -5.1000
    -5.0786  -5.0475  -5.0412  -4.8822   3.5057   6.5319   7.2311   7.3593
     8.1686   8.2829   8.9631   9.0366   9.4105   9.9503  12.9611  13.6988
    13.7832  14.2612

          k = 0.0500 0.0500 0.4500 (  5073 PWs)   bands (ev):

   -46.0784 -22.4132 -22.3782 -22.3209  -6.7779  -6.0188  -5.9910  -5.1274
    -5.0890  -5.0680  -5.0407  -4.8816   3.3556   6.2524   7.4195   7.6108
     7.8875   7.9822   8.9317   9.0345   9.4635  10.3912  12.9477  13.5476
    13.9464  14.0552

          k = 0.0500 0.1500 0.1500 (  5079 PWs)   bands (ev):

   -46.0791 -22.4258 -22.3331 -22.3221  -7.0513  -6.1838  -6.0727  -5.0683
    -5.0619  -5.0498  -4.9282  -4.9106   3.9409   6.8253   6.9302   7.3456
     8.3346   8.5625   8.9566   9.2291   9.3349   9.5993  12.8182  13.2118
    13.2840  15.0049

          k = 0.0500 0.1500 0.2500 (  5077 PWs)   bands (ev):

   -46.0788 -22.4251 -22.3502 -22.3215  -6.9207  -6.1313  -6.0325  -5.0850
    -5.0712  -5.0493  -4.9595  -4.9015   3.6462   6.7831   7.0488   7.2815
     8.1808   8.3946   8.8340   9.0908   9.2774   9.7571  13.1982  13.2915
    13.5549  15.0511

          k = 0.0500 0.1500 0.3500 (  5080 PWs)   bands (ev):

   -46.0784 -22.4244 -22.3672 -22.3208  -6.7869  -6.0775  -5.9882  -5.1043
    -5.0803  -5.0488  -4.9866  -4.8980   3.3992   6.5158   7.1574   7.3341
     7.9372   8.2332   8.7792   9.0831   9.2593  10.0031  13.2042  13.6930
    13.9018  14.4261

          k = 0.0500 0.1500 0.4500 (  5079 PWs)   bands (ev):

   -46.0782 -22.4240 -22.3777 -22.3205  -6.7026  -6.0437  -5.9578  -5.1195
    -5.0886  -5.0485  -4.9955  -4.9004   3.2661   6.2559   7.2711   7.4960
     7.7654   7.9748   8.8128   9.1467   9.2306  10.2017  13.1857  13.9228
    13.9539  14.1455

          k = 0.0500 0.2500 0.2500 (  5076 PWs)   bands (ev):

   -46.0784 -22.4426 -22.3494 -22.3208  -6.7765  -6.1120  -5.9894  -5.0895
    -5.0751  -5.0569  -4.9351  -4.9149   3.4219   6.6518   7.0566   7.1897
     7.9643   8.1157   8.6024   9.0677   9.4572   9.9027  13.2615  13.6047
    13.8292  15.0045

          k = 0.0500 0.2500 0.3500 (  5080 PWs)   bands (ev):

   -46.0781 -22.4418 -22.3664 -22.3202  -6.6639  -6.0778  -5.9351  -5.0992
    -5.0793  -5.0583  -4.9456  -4.8934   3.2304   6.4766   6.9405   7.2631
     7.7468   8.0865   8.5039   8.8913   9.5677   9.9123  13.5731  13.6910
    14.0882  14.7193

          k = 0.0500 0.2500 0.4500 (  5084 PWs)   bands (ev):

   -46.0779 -22.4413 -22.3768 -22.3198  -6.5991  -6.0551  -5.8930  -5.1058
    -5.0870  -5.0594  -4.9387  -4.8897   3.1219   6.2524   6.9662   7.2630
     7.6539   8.0860   8.4435   8.8829   9.5881   9.8812  13.5767  13.9160
    14.2836  14.5323

          k = 0.0500 0.3500 0.3500 (  5079 PWs)   bands (ev):

   -46.0777 -22.4591 -22.3656 -22.3195  -6.5643  -6.0433  -5.8754  -5.0980
    -5.0820  -5.0611  -4.9681  -4.8352   3.0673   6.2946   6.6809   7.2551
     7.6580   7.9469   8.3862   8.8303   9.5561   9.9441  13.6506  13.9732
    14.2805  15.0326

          k = 0.0500 0.3500 0.4500 (  5079 PWs)   bands (ev):

   -46.0775 -22.4586 -22.3760 -22.3191  -6.5345  -6.0098  -5.8212  -5.0992
    -5.0856  -5.0642  -4.9762  -4.8008   2.9797   6.1799   6.5433   7.3198
     7.4820   8.1202   8.2915   8.7120   9.3634  10.0166  13.8868  13.9687
    14.4437  15.0901

          k = 0.0500 0.4500 0.4500 (  5100 PWs)   bands (ev):

   -46.0773 -22.4692 -22.3754 -22.3187  -6.5174  -5.9504  -5.7725  -5.1015
    -5.0849  -5.0647  -5.0003  -4.7496   2.8932   5.9944   6.4281   7.3048
     7.4545   8.0621   8.3433   8.6394   9.0485  10.1938  13.8710  14.2046
    14.5545  15.4519

          k = 0.1500 0.1500 0.1500 (  5095 PWs)   bands (ev):

   -46.0789 -22.4254 -22.3328 -22.3326  -6.9756  -6.1590  -6.0496  -5.0768
    -5.0675  -5.0493  -4.9249  -4.9118   3.7925   6.7976   6.8485   7.4559
     8.1833   8.3293   8.9283   9.2926   9.4307   9.4793  13.0432  13.2658
    13.2994  15.4934

          k = 0.1500 0.1500 0.2500 (  5084 PWs)   bands (ev):

   -46.0785 -22.4247 -22.3497 -22.3320  -6.8529  -6.1169  -6.0101  -5.0914
    -5.0687  -5.0457  -4.9415  -4.9017   3.5674   6.7413   6.8421   7.3068
     7.9649   8.1389   8.9559   9.2138   9.3847   9.6648  13.2302  13.4174
    13.5503  15.1406

          k = 0.1500 0.1500 0.3500 (  5082 PWs)   bands (ev):

   -46.0782 -22.4240 -22.3667 -22.3314  -6.7315  -6.0722  -5.9664  -5.1041
    -5.0615  -5.0395  -4.9650  -4.8980   3.3629   6.5147   6.8474   7.1880
     7.7633   8.1885   8.7128   9.2602   9.3960   9.8750  13.1737  13.7440
    13.8919  14.6330

          k = 0.1500 0.1500 0.4500 (  5084 PWs)   bands (ev):

   -46.0780 -22.4235 -22.3772 -22.3310  -6.6581  -6.0433  -5.9358  -5.1092
    -5.0560  -5.0322  -4.9813  -4.9016   3.2476   6.2619   6.8446   7.2339
     7.6690   8.3026   8.4654   9.3313   9.3812   9.9817  13.1094  13.9611
    14.1291  14.3890

          k = 0.1500 0.2500 0.2500 (  5081 PWs)   bands (ev):

   -46.0782 -22.4421 -22.3490 -22.3313  -6.7063  -6.1031  -5.9919  -5.0935
    -5.0779  -5.0323  -4.9162  -4.8973   3.4149   6.5931   6.7115   7.1313
     7.6766   7.9602   8.8837   9.2580   9.5007   9.7527  13.2984  13.5981
    13.7822  14.9448

          k = 0.1500 0.2500 0.3500 (  5080 PWs)   bands (ev):

   -46.0779 -22.4414 -22.3659 -22.3307  -6.5987  -6.0863  -5.9439  -5.0964
    -5.0674  -5.0220  -4.9190  -4.8778   3.2743   6.4497   6.6704   6.8966
     7.3827   8.0063   8.9147   9.0898   9.5692   9.7537  13.4210  13.7209
    14.0274  14.9008

          k = 0.1500 0.2500 0.4500 (  5077 PWs)   bands (ev):

   -46.0776 -22.4409 -22.3763 -22.3303  -6.5381  -6.0790  -5.9025  -5.0953
    -5.0578  -5.0188  -4.9128  -4.8762   3.1890   6.2516   6.6348   6.8278
     7.2950   8.1039   8.7267   9.1773   9.5051   9.7363  13.4278  13.9044
    14.2261  14.9321

          k = 0.1500 0.3500 0.3500 (  5081 PWs)   bands (ev):

   -46.0775 -22.4587 -22.3651 -22.3300  -6.4871  -6.0707  -5.9192  -5.0929
    -5.0603  -5.0012  -4.9263  -4.8198   3.1716   6.2587   6.5774   6.6618
     7.0884   7.9747   8.7813   9.1101   9.4021   9.9021  13.5627  13.8898
    14.1956  15.2045

          k = 0.1500 0.3500 0.4500 (  5079 PWs)   bands (ev):

   -46.0773 -22.4582 -22.3755 -22.3296  -6.4566  -6.0601  -5.8694  -5.0887
    -5.0417  -5.0047  -4.9288  -4.7855   3.1140   6.1655   6.4688   6.6305
     6.8930   8.0447   8.7235   9.0244   9.1898  10.0074  13.7900  13.8953
    14.3473  15.4281

          k = 0.1500 0.4500 0.4500 (  5073 PWs)   bands (ev):

   -46.0771 -22.4688 -22.3750 -22.3291  -6.4352  -6.0122  -5.8498  -5.0859
    -5.0222  -4.9881  -4.9533  -4.7330   3.0605   5.9756   6.3865   6.6238
     6.7512   8.0465   8.4741   8.9307   9.1316  10.1765  13.8548  14.0863
    14.4482  15.7651

          k = 0.2500 0.2500 0.2500 (  5070 PWs)   bands (ev):

   -46.0779 -22.4414 -22.3485 -22.3481  -6.6011  -6.0869  -5.9869  -5.0827
    -5.0786  -5.0014  -4.8930  -4.8710   3.3851   6.4110   6.4914   6.9815
     7.4508   7.5307   9.0633   9.4974   9.5125   9.6529  13.3019  13.7503
    13.7589  14.9719

          k = 0.2500 0.2500 0.3500 (  5072 PWs)   bands (ev):

   -46.0775 -22.4407 -22.3652 -22.3476  -6.5126  -6.0762  -5.9562  -5.0771
    -5.0623  -4.9650  -4.8758  -4.8528   3.3336   6.2742   6.3503   6.6558
     7.1813   7.4958   8.9190   9.4416   9.5486   9.7941  13.3740  13.8089
    14.0130  15.1727

          k = 0.2500 0.2500 0.4500 (  5073 PWs)   bands (ev):

   -46.0773 -22.4402 -22.3756 -22.3472  -6.4691  -6.0756  -5.9184  -5.0729
    -5.0504  -4.9295  -4.8718  -4.8487   3.2930   6.1766   6.2547   6.4457
     7.1171   7.5375   8.6889   9.4681   9.5075   9.8527  13.4796  13.8985
    14.2092  15.4202

          k = 0.2500 0.3500 0.3500 (  5057 PWs)   bands (ev):

   -46.0772 -22.4579 -22.3644 -22.3469  -6.3747  -6.0970  -5.9787  -5.0695
    -5.0436  -4.9241  -4.8510  -4.7904   3.3520   6.0333   6.1795   6.4373
     6.8610   7.3782   8.4618   9.5215   9.7056   9.8979  13.5288  13.9446
    14.1449  15.5062

          k = 0.2500 0.3500 0.4500 (  5063 PWs)   bands (ev):

   -46.0770 -22.4574 -22.3748 -22.3465  -6.3445  -6.1125  -5.9360  -5.0627
    -5.0271  -4.8973  -4.8403  -4.7565   3.3625   6.0202   6.0589   6.2383
     6.6788   7.4045   8.1039   9.5421   9.6948  10.0111  13.7682  13.9357
    14.2911  15.8469

          k = 0.2500 0.4500 0.4500 (  5070 PWs)   bands (ev):

   -46.0767 -22.4681 -22.3743 -22.3460  -6.3023  -6.0942  -5.9473  -5.0584
    -5.0089  -4.8759  -4.8229  -4.7016   3.3903   5.8417   6.0658   6.1150
     6.4861   7.3791   7.6449   9.5380   9.7394  10.1599  13.9131  14.0663
    14.3827  16.1833

          k = 0.3500 0.3500 0.3500 (  5055 PWs)   bands (ev):

   -46.0768 -22.4572 -22.3638 -22.3636  -6.3058  -6.0878  -6.0156  -5.0449
    -5.0321  -4.8505  -4.7818  -4.7539   3.5448   5.7713   5.8682   6.2980
     6.8121   6.8689   7.8237   9.7966   9.8912  10.0247  13.6951  14.1198
    14.1223  15.8766

          k = 0.3500 0.3500 0.4500 (  5056 PWs)   bands (ev):

   -46.0766 -22.4567 -22.3741 -22.3633  -6.2954  -6.0899  -5.9932  -5.0349
    -5.0209  -4.7987  -4.7545  -4.7221   3.6658   5.6661   5.7280   6.1294
     6.6417   6.8526   7.3364   9.8523   9.9654  10.1403  13.9245  14.0783
    14.2823  16.2565

          k = 0.3500 0.4500 0.4500 (  5051 PWs)   bands (ev):

   -46.0764 -22.4673 -22.3736 -22.3628  -6.1924  -6.1399  -6.0261  -5.0311
    -5.0050  -4.7699  -4.7067  -4.6634   3.8606   5.5078   5.6520   5.9724
     6.4554   6.7089   6.8248   9.9483  10.1230  10.1531  14.0858  14.1904
    14.3530  16.6196

          k = 0.4500 0.4500 0.4500 (  5034 PWs)   bands (ev):

   -46.0762 -22.4669 -22.3732 -22.3732  -6.2122  -6.0798  -6.0654  -5.0158
    -5.0014  -4.7070  -4.6413  -4.6353   4.3562   5.3277   5.4039   5.8816
     5.9507   6.4406   6.5537  10.1310  10.1438  10.3007  14.2597  14.3298
    14.3326  16.9752

          k =-0.0500 0.1500 0.0500 (  5074 PWs)   bands (ev):

   -46.0793 -22.4262 -22.3225 -22.3225  -7.1304  -6.2155  -6.0962  -5.0598
    -5.0526  -5.0500  -4.9267  -4.9018   4.1554   6.8618   6.8649   7.1862
     8.5839   8.6101   9.1192   9.1521   9.5387   9.5569  12.5021  13.2012
    13.2179  14.7030

          k =-0.0500 0.2500 0.0500 (  5093 PWs)   bands (ev):

   -46.0790 -22.4438 -22.3218 -22.3218  -6.9684  -6.1803  -6.0364  -5.0695
    -5.0602  -5.0586  -4.9869  -4.8967   3.7737   6.8310   6.9494   7.1187
     8.3302   8.3537   9.1020   9.2227   9.6057   9.6732  12.5048  13.5874
    13.6121  14.7070

          k =-0.0500 0.3500 0.0500 (  5090 PWs)   bands (ev):

   -46.0786 -22.4613 -22.3212 -22.3212  -6.7918  -6.1535  -5.9680  -5.0991
    -5.0685  -5.0579  -5.0430  -4.8939   3.4705   6.4529   7.0424   7.1737
     8.1049   8.1088   9.0405   9.4516   9.6588  10.0518  12.5065  13.9585
    13.9884  14.3448

          k =-0.0500 0.4500 0.0500 (  5073 PWs)   bands (ev):

   -46.0784 -22.4720 -22.3208 -22.3208  -6.6710  -6.1452  -5.9194  -5.1365
    -5.0732  -5.0649  -5.0574  -4.8935   3.3109   6.1454   7.1074   7.2722
     7.9396   7.9702   9.0005   9.5416   9.6940  10.5063  12.5046  13.6045
    14.1818  14.2187

          k = 0.1500 0.0500 0.1500 (  5079 PWs)   bands (ev):

   -46.0791 -22.4145 -22.3333 -22.3330  -7.0676  -6.1775  -6.0690  -5.0759
    -5.0517  -5.0493  -4.9370  -4.9039   3.9500   6.8211   7.0055   7.3267
     8.3766   8.5055   8.9976   9.2031   9.3925   9.5361  13.0068  13.0678
    13.0998  15.2252

          k =-0.0500 0.2500 0.1500 (  5077 PWs)   bands (ev):

   -46.0788 -22.4433 -22.3324 -22.3214  -6.8944  -6.1519  -6.0239  -5.0818
    -5.0668  -5.0576  -4.9531  -4.9117   3.6331   6.7280   6.9828   7.2658
     8.0754   8.3339   8.8511   9.2628   9.3916   9.8037  12.8167  13.5935
    13.6449  15.0283

          k = 0.2500 0.0500 0.1500 (  5077 PWs)   bands (ev):

   -46.0788 -22.4139 -22.3502 -22.3324  -6.9425  -6.1261  -6.0190  -5.0870
    -5.0608  -5.0493  -4.9674  -4.9035   3.6563   6.8048   7.0588   7.2845
     8.1603   8.2692   8.9105   9.1974   9.3952   9.6543  13.0416  13.3659
    13.4633  15.2463

          k =-0.0500 0.3500 0.1500 (  5080 PWs)   bands (ev):

   -46.0784 -22.4608 -22.3317 -22.3208  -6.7272  -6.1246  -5.9695  -5.1066
    -5.0668  -5.0632  -4.9835  -4.9085   3.3716   6.4117   6.9908   7.2662
     7.8706   8.1290   8.9330   9.2521   9.4537  10.1037  12.8090  13.9547
    13.9970  14.5251

          k = 0.3500 0.0500 0.1500 (  5080 PWs)   bands (ev):

   -46.0784 -22.4132 -22.3672 -22.3318  -6.8172  -6.0613  -5.9728  -5.1027
    -5.0663  -5.0488  -5.0052  -4.9003   3.4088   6.5334   7.0908   7.3845
     7.8974   8.2521   8.6293   9.2474   9.4244   9.9594  13.0229  13.7513
    13.8362  14.4788

          k =-0.0500 0.4500 0.1500 (  5079 PWs)   bands (ev):

   -46.0782 -22.4715 -22.3313 -22.3204  -6.6167  -6.1110  -5.9328  -5.1284
    -5.0700  -5.0649  -4.9938  -4.9111   3.2288   6.1241   6.9976   7.3642
     7.7424   7.9851   9.0313   9.2298   9.4933  10.3368  12.7952  13.9890
    14.1931  14.2442

          k = 0.4500 0.0500 0.1500 (  5079 PWs)   bands (ev):

   -46.0782 -22.4128 -22.3777 -22.3314  -6.7404  -6.0053  -5.9535  -5.1183
    -5.0701  -5.0485  -5.0229  -4.9013   3.2750   6.2608   7.1962   7.4760
     7.8318   8.0515   8.5553   9.2349   9.4625  10.2269  12.9830  13.9730
    14.0067  14.0837

          k = 0.2500 0.0500 0.2500 (  5076 PWs)   bands (ev):

   -46.0784 -22.4132 -22.3497 -22.3493  -6.8407  -6.0828  -5.9634  -5.0870
    -5.0632  -5.0550  -4.9398  -4.9308   3.4464   6.7592   7.0002   7.2757
     7.8556   7.9671   8.9317   9.0420   9.5991   9.7127  13.2886  13.4212
    13.7284  15.1039

          k =-0.0500 0.3500 0.2500 (  5080 PWs)   bands (ev):

   -46.0781 -22.4599 -22.3487 -22.3201  -6.6346  -6.0846  -5.9406  -5.1006
    -5.0769  -5.0615  -4.9476  -4.8953   3.2159   6.3587   6.9610   7.1781
     7.7784   8.0379   8.4832   9.1102   9.5209  10.0111  13.2488  13.9750
    14.0939  14.8057

          k = 0.3500 0.0500 0.2500 (  5080 PWs)   bands (ev):

   -46.0781 -22.4125 -22.3664 -22.3488  -6.7501  -6.0152  -5.9104  -5.0925
    -5.0654  -5.0564  -4.9526  -4.9214   3.2536   6.5387   6.8983   7.2708
     7.6818   7.9607   8.6134   9.1167   9.6226   9.8887  13.3148  13.7554
    14.0058  14.7778

          k =-0.0500 0.4500 0.2500 (  5084 PWs)   bands (ev):

   -46.0779 -22.4706 -22.3482 -22.3197  -6.5522  -6.0548  -5.9111  -5.1134
    -5.0762  -5.0679  -4.9459  -4.8884   3.0976   6.0874   6.9453   7.1625
     7.7275   7.9752   8.4945   9.1525   9.4942  10.0610  13.2372  14.2027
    14.2468  14.6897

          k = 0.4500 0.0500 0.2500 (  5084 PWs)   bands (ev):

   -46.0779 -22.4121 -22.3769 -22.3483  -6.7016  -5.9502  -5.8870  -5.1015
    -5.0679  -5.0596  -4.9449  -4.9256   3.1433   6.2681   6.9831   7.1423
     7.7249   8.0726   8.3065   9.1970   9.5556  10.0127  13.2950  14.0119
    14.1933  14.5719

          k = 0.3500 0.0500 0.3500 (  5079 PWs)   bands (ev):

   -46.0777 -22.4119 -22.3658 -22.3655  -6.7050  -5.9330  -5.8463  -5.0870
    -5.0702  -5.0551  -4.9704  -4.8799   3.1021   6.4733   6.6243   7.2309
     7.4136   7.9814   8.6230   8.8625   9.5798  10.0105  13.6548  13.7948
    14.1959  15.0309

          k =-0.0500 0.4500 0.3500 (  5079 PWs)   bands (ev):

   -46.0775 -22.4698 -22.3651 -22.3191  -6.5215  -5.9933  -5.8383  -5.1034
    -5.0827  -5.0657  -4.9797  -4.7998   2.9699   6.0440   6.6448   7.1881
     7.6642   7.9358   8.3232   8.8439   9.3469  10.0673  13.6416  14.2059
    14.4173  15.2332

          k = 0.4500 0.0500 0.3500 (  5079 PWs)   bands (ev):

   -46.0775 -22.4114 -22.3760 -22.3652  -6.6875  -5.8560  -5.8135  -5.0898
    -5.0687  -5.0623  -4.9815  -4.8502   3.0113   6.2316   6.6356   7.1107
     7.3834   8.1488   8.3939   8.8667   9.3966  10.1578  13.7078  14.0076
    14.3322  15.1199

          k = 0.4500 0.0500 0.4500 (  5100 PWs)   bands (ev):

   -46.0773 -22.4110 -22.3756 -22.3755  -6.6883  -5.7790  -5.7657  -5.0887
    -5.0667  -5.0623  -5.0094  -4.8041   2.9302   6.1122   6.5123   7.1462
     7.1669   8.2959   8.4539   8.6164   9.1534  10.3293  13.9876  14.0136
    14.4220  15.3914

          k =-0.1500 0.2500 0.1500 (  5084 PWs)   bands (ev):

   -46.0785 -22.4429 -22.3321 -22.3319  -6.8213  -6.1306  -6.0169  -5.0900
    -5.0755  -5.0443  -4.9286  -4.9123   3.5527   6.7214   6.7455   7.3153
     7.9807   8.1476   8.7672   9.3493   9.4878   9.6915  13.0148  13.5975
    13.6498  15.1644

          k =-0.1500 0.3500 0.1500 (  5082 PWs)   bands (ev):

   -46.0782 -22.4603 -22.3314 -22.3312  -6.6592  -6.1047  -5.9828  -5.1091
    -5.0720  -5.0313  -4.9505  -4.9091   3.3332   6.4138   6.6764   7.2184
     7.8520   8.1283   8.6131   9.3644   9.5365   9.9583  12.9530  13.9419
    13.9702  14.6821

          k =-0.1500 0.4500 0.1500 (  5084 PWs)   bands (ev):

   -46.0780 -22.4710 -22.3309 -22.3308  -6.5542  -6.0905  -5.9608  -5.1190
    -5.0697  -5.0161  -4.9668  -4.9143   3.2082   6.1275   6.6263   7.2675
     7.7973   8.0951   8.5734   9.3611   9.5662  10.0893  12.8966  14.1619
    14.1697  14.4670

          k = 0.2500 0.1500 0.2500 (  5081 PWs)   bands (ev):

   -46.0782 -22.4240 -22.3492 -22.3488  -6.7498  -6.0851  -5.9723  -5.0893
    -5.0745  -5.0312  -4.9205  -4.9042   3.4309   6.6377   6.7491   7.1246
     7.6166   7.9343   9.0570   9.2383   9.5563   9.6168  13.3474  13.5286
    13.6977  14.9540

          k =-0.1500 0.3500 0.2500 (  5080 PWs)   bands (ev):

   -46.0779 -22.4595 -22.3483 -22.3306  -6.5613  -6.0833  -5.9722  -5.1000
    -5.0736  -5.0114  -4.9193  -4.8804   3.2584   6.3468   6.5742   6.9262
     7.5477   7.9677   8.6608   9.3569   9.5611   9.8078  13.2341  13.9092
    14.0336  14.9329

          k = 0.3500 0.1500 0.2500 (  5080 PWs)   bands (ev):

   -46.0779 -22.4233 -22.3660 -22.3483  -6.6594  -6.0395  -5.9307  -5.0912
    -5.0669  -5.0111  -4.9199  -4.9004   3.2900   6.4904   6.6525   6.8665
     7.4312   7.9305   8.9057   9.2533   9.5155   9.7952  13.3227  13.7584
    13.9679  14.9088

          k =-0.1500 0.4500 0.2500 (  5077 PWs)   bands (ev):

   -46.0776 -22.4701 -22.3478 -22.3302  -6.4766  -6.0603  -5.9624  -5.1028
    -5.0690  -4.9923  -4.9267  -4.8735   3.1625   6.0945   6.4607   6.9185
     7.5321   8.0417   8.4877   9.4109   9.5214   9.8197  13.2112  14.1301
    14.2198  15.0145

          k = 0.4500 0.1500 0.2500 (  5077 PWs)   bands (ev):

   -46.0776 -22.4229 -22.3764 -22.3479  -6.6120  -6.0046  -5.9005  -5.0909
    -5.0599  -4.9936  -4.9197  -4.9061   3.2038   6.2643   6.5797   6.8284
     7.3957   7.9912   8.7259   9.3112   9.4245   9.8705  13.3040  13.9575
    14.1739  14.9420

          k = 0.3500 0.1500 0.3500 (  5081 PWs)   bands (ev):

   -46.0775 -22.4226 -22.3653 -22.3651  -6.6132  -5.9745  -5.8932  -5.0819
    -5.0594  -4.9891  -4.9175  -4.8642   3.2026   6.4436   6.4764   6.6464
     7.0525   7.9094   8.9400   9.1280   9.3158  10.0132  13.5564  13.8086
    14.1298  15.1915

          k =-0.1500 0.4500 0.3500 (  5079 PWs)   bands (ev):

   -46.0773 -22.4693 -22.3646 -22.3296  -6.4392  -6.0314  -5.9072  -5.0916
    -5.0513  -4.9788  -4.9452  -4.7839   3.1030   6.0271   6.5095   6.5771
     7.0589   8.0010   8.5896   9.1049   9.2693  10.0214  13.5959  14.1006
    14.3352  15.4963

          k = 0.4500 0.1500 0.3500 (  5079 PWs)   bands (ev):

   -46.0773 -22.4222 -22.3756 -22.3647  -6.5971  -5.9226  -5.8657  -5.0782
    -5.0472  -4.9749  -4.9282  -4.8357   3.1431   6.2228   6.4844   6.5423
     6.9397   7.9465   8.7807   9.0988   9.1901  10.1473  13.6596  13.9473
    14.2764  15.4349

          k = 0.4500 0.1500 0.4500 (  5073 PWs)   bands (ev):

   -46.0771 -22.4218 -22.3751 -22.3751  -6.5996  -5.8560  -5.8439  -5.0732
    -5.0257  -4.9619  -4.9490  -4.7895   3.0978   6.1016   6.4490   6.5400
     6.6413   7.9683   8.5768   9.0599   9.0697  10.3237  13.9204  13.9647
    14.3704  15.7430

          k =-0.2500 0.3500 0.2500 (  5072 PWs)   bands (ev):

   -46.0775 -22.4587 -22.3477 -22.3474  -6.4544  -6.0819  -6.0017  -5.0838
    -5.0634  -4.9627  -4.8763  -4.8446   3.3153   6.1810   6.3367   6.6411
     7.3826   7.4090   8.7985   9.5216   9.6322   9.7247  13.3060  13.9068
    14.0275  15.1828

          k =-0.2500 0.4500 0.2500 (  5073 PWs)   bands (ev):

   -46.0773 -22.4694 -22.3472 -22.3470  -6.3699  -6.0698  -6.0109  -5.0821
    -5.0540  -4.9200  -4.8836  -4.8305   3.2623   6.0449   6.1149   6.5690
     7.3608   7.4316   8.5660   9.4758   9.6614   9.7781  13.3624  14.0611
    14.2250  15.4657

          k = 0.3500 0.2500 0.3500 (  5057 PWs)   bands (ev):

   -46.0772 -22.4400 -22.3646 -22.3643  -6.4616  -6.0341  -5.9588  -5.0583
    -5.0507  -4.9108  -4.8331  -4.8298   3.3724   6.1097   6.1162   6.4568
     6.9023   7.2928   8.4955   9.5574   9.5978  10.0184  13.5293  13.9159
    14.1118  15.4998

          k =-0.2500 0.4500 0.3500 (  5063 PWs)   bands (ev):

   -46.0770 -22.4686 -22.3639 -22.3464  -6.3089  -6.0847  -5.9941  -5.0658
    -5.0293  -4.8904  -4.8449  -4.7526   3.3484   5.8632   6.1158   6.2506
     6.7987   7.3625   8.0921   9.5148   9.7426   9.9989  13.6611  14.0640
    14.2909  15.8633

          k = 0.4500 0.2500 0.3500 (  5063 PWs)   bands (ev):

   -46.0770 -22.4395 -22.3748 -22.3640  -6.4482  -6.0129  -5.9346  -5.0528
    -5.0358  -4.8650  -4.8334  -4.8015   3.3835   5.9742   6.1016   6.2168
     6.7862   7.2902   8.1376   9.5848   9.6055  10.1414  13.7239  13.9533
    14.2588  15.8425

          k = 0.4500 0.2500 0.4500 (  5070 PWs)   bands (ev):

   -46.0767 -22.4391 -22.3744 -22.3743  -6.4541  -5.9538  -5.9425  -5.0459
    -5.0196  -4.8291  -4.8183  -4.7609   3.4270   5.9441   5.9676   6.0932
     6.5528   7.2641   7.7127   9.6182   9.6220  10.3148  13.9470  14.0074
    14.3367  16.1672

          k =-0.3500 0.4500 0.3500 (  5056 PWs)   bands (ev):

   -46.0766 -22.4678 -22.3633 -22.3632  -6.2040  -6.1226  -6.0476  -5.0419
    -5.0157  -4.8161  -4.7485  -4.7074   3.6444   5.5797   5.8590   6.0553
     6.6701   6.8615   7.3314   9.8825  10.0125  10.0337  13.8727  14.1488
    14.2910  16.2572

          k = 0.4500 0.3500 0.4500 (  5051 PWs)   bands (ev):

   -46.0764 -22.4563 -22.3736 -22.3736  -6.3061  -6.0340  -6.0222  -5.0184
    -5.0171  -4.7358  -4.7040  -4.7019   3.8912   5.5439   5.5497   6.0096
     6.5518   6.6798   6.7707   9.9753   9.9840  10.3061  14.1099  14.1736
    14.3223  16.6160

     the Fermi energy is    10.4076 ev

!    total energy              =    -364.95451364 Ry
     Harris-Foulkes estimate   =    -364.95451364 Ry
     estimated scf accuracy    <          4.3E-10 Ry

     The total energy is the sum of the following terms:

     one-electron contribution =     -83.53057019 Ry
     hartree contribution      =      71.16868008 Ry
     xc contribution           =     -85.82951261 Ry
     ewald contribution        =    -266.76922372 Ry
     smearing contrib. (-TS)   =       0.00611280 Ry

     convergence has been achieved in   7 iterations

     Forces acting on atoms (cartesian axes, Ry/au):

     atom    1 type  1   force =     0.00000000    0.01810889    0.00000000
     atom    2 type  2   force =     0.00000000   -0.03439091    0.00000000
     atom    3 type  3   force =     0.00000000    0.00403943    0.00000000
     atom    4 type  3   force =     0.00000000    0.00820316    0.00000000
     atom    5 type  3   force =     0.00000000    0.00403943    0.00000000

     Total force =     0.009996     Total SCF correction =     0.000049


     Computing stress (Cartesian axis) and pressure

          total   stress  (Ry/bohr**3)                   (kbar)     P=   16.62
   0.00002451   0.00000000   0.00000000          3.60      0.00      0.00
   0.00000000   0.00029001   0.00000000          0.00     42.66      0.00
   0.00000000   0.00000000   0.00002451          0.00      0.00      3.60


     number of scf cycles    =   2
     number of bfgs steps    =   1

     energy   old            =    -364.9543677855 Ry
     energy   new            =    -364.9545136379 Ry

     CASE: energy  _new < energy  _old

     new trust radius        =       0.0131793763 bohr
     new conv_thr            =       0.0000000001 Ry


ATOMIC_POSITIONS (crystal)
Pb       0.000000000   0.000000000   0.000000000    0   0   0
Ti       0.500000000   0.547000000   0.500000000    0   0   0
O        0.500000000   0.501255755   0.000000000
O        0.500000000   0.003359229   0.500000000
O        0.000000000   0.501255755   0.500000000



     Writing output data file PbTiO3.save/
     NEW-OLD atomic charge density approx. for the potential

     Check: negative core charge=   -0.000006

     total cpu time spent up to now is      524.3 secs

     Self-consistent Calculation

     iteration #  1     ecut=    80.00 Ry     beta= 0.70
     Davidson diagonalization with overlap
     ethr =  1.00E-06,  avg # of iterations =  3.2

     total cpu time spent up to now is      551.8 secs

     total energy              =    -364.95463394 Ry
     Harris-Foulkes estimate   =    -364.95466386 Ry
     estimated scf accuracy    <       0.00004615 Ry

     iteration #  2     ecut=    80.00 Ry     beta= 0.70
     Davidson diagonalization with overlap
     ethr =  1.05E-07,  avg # of iterations =  4.0

     total cpu time spent up to now is      576.3 secs

     total energy              =    -364.95462365 Ry
     Harris-Foulkes estimate   =    -364.95467269 Ry
     estimated scf accuracy    <       0.00012363 Ry

     iteration #  3     ecut=    80.00 Ry     beta= 0.70
     Davidson diagonalization with overlap
     ethr =  1.05E-07,  avg # of iterations =  3.1

     total cpu time spent up to now is      599.3 secs

     total energy              =    -364.95464903 Ry
     Harris-Foulkes estimate   =    -364.95465290 Ry
     estimated scf accuracy    <       0.00001199 Ry

     iteration #  4     ecut=    80.00 Ry     beta= 0.70
     Davidson diagonalization with overlap
     ethr =  2.72E-08,  avg # of iterations =  2.7

     total cpu time spent up to now is      619.9 secs

     total energy              =    -364.95465071 Ry
     Harris-Foulkes estimate   =    -364.95465093 Ry
     estimated scf accuracy    <       0.00000042 Ry

     iteration #  5     ecut=    80.00 Ry     beta= 0.70
     Davidson diagonalization with overlap
     ethr =  9.52E-10,  avg # of iterations =  3.9

     total cpu time spent up to now is      644.6 secs

     total energy              =    -364.95465084 Ry
     Harris-Foulkes estimate   =    -364.95465097 Ry
     estimated scf accuracy    <       0.00000032 Ry

     iteration #  6     ecut=    80.00 Ry     beta= 0.70
     Davidson diagonalization with overlap
     ethr =  7.16E-10,  avg # of iterations =  2.9

     total cpu time spent up to now is      665.9 secs

     total energy              =    -364.95465091 Ry
     Harris-Foulkes estimate   =    -364.95465092 Ry
     estimated scf accuracy    <       0.00000003 Ry

     iteration #  7     ecut=    80.00 Ry     beta= 0.70
     Davidson diagonalization with overlap
     ethr =  7.60E-11,  avg # of iterations =  2.4

     total cpu time spent up to now is      686.8 secs

     total energy              =    -364.95465091 Ry
     Harris-Foulkes estimate   =    -364.95465091 Ry
     estimated scf accuracy    <          4.0E-10 Ry

     iteration #  8     ecut=    80.00 Ry     beta= 0.70
     Davidson diagonalization with overlap
     ethr =  9.07E-13,  avg # of iterations =  4.0

     total cpu time spent up to now is      715.0 secs

     End of self-consistent calculation

          k = 0.0500 0.0500 0.0500 (  5047 PWs)   bands (ev):

   -46.0931 -22.4206 -22.3365 -22.3365  -7.2255  -6.2371  -6.1339  -5.0576
    -5.0417  -5.0414  -4.9039  -4.8899   4.4604   6.8160   6.8571   6.9971
     8.7943   8.8220   9.1630   9.2803   9.5209   9.5268  12.4897  12.9200
    12.9269  14.6866

          k = 0.0500 0.0500 0.1500 (  5074 PWs)   bands (ev):

   -46.0929 -22.4202 -22.3471 -22.3361  -7.1442  -6.2032  -6.1041  -5.0653
    -5.0495  -5.0410  -4.9344  -4.8886   4.1645   6.8700   6.9361   7.1759
     8.5835   8.7548   9.1164   9.1779   9.3784   9.5161  12.8076  12.9284
    13.0313  14.8674

          k = 0.0500 0.0500 0.2500 (  5093 PWs)   bands (ev):

   -46.0926 -22.4195 -22.3642 -22.3355  -7.0084  -6.1435  -6.0568  -5.0783
    -5.0622  -5.0402  -4.9907  -4.8837   3.7963   6.8750   7.0492   7.1957
     8.4510   8.5386   9.0360   9.1078   9.3128   9.5832  12.9285  13.2706
    13.3667  14.8687

          k = 0.0500 0.0500 0.3500 (  5090 PWs)   bands (ev):

   -46.0922 -22.4189 -22.3813 -22.3349  -6.8667  -6.0742  -6.0128  -5.0978
    -5.0763  -5.0451  -5.0393  -4.8806   3.5081   6.5274   7.2303   7.3564
     8.1700   8.2826   8.9721   9.0511   9.4203   9.9537  12.9291  13.6899
    13.7684  14.2638

          k = 0.0500 0.0500 0.4500 (  5073 PWs)   bands (ev):

   -46.0920 -22.4184 -22.3918 -22.3345  -6.7756  -6.0191  -5.9939  -5.1254
    -5.0863  -5.0659  -5.0388  -4.8800   3.3583   6.2464   7.4190   7.6082
     7.8876   7.9778   8.9364   9.0569   9.4734  10.3951  12.9172  13.5491
    13.9380  14.0394

          k = 0.0500 0.1500 0.1500 (  5079 PWs)   bands (ev):

   -46.0927 -22.4310 -22.3467 -22.3357  -7.0517  -6.1811  -6.0767  -5.0657
    -5.0598  -5.0479  -4.9264  -4.9089   3.9435   6.8250   6.9313   7.3430
     8.3481   8.5763   8.9646   9.2320   9.3337   9.5981  12.8083  13.1832
    13.2613  14.9882

          k = 0.0500 0.1500 0.2500 (  5077 PWs)   bands (ev):

   -46.0923 -22.4304 -22.3638 -22.3351  -6.9206  -6.1291  -6.0362  -5.0826
    -5.0688  -5.0474  -4.9575  -4.9000   3.6487   6.7821   7.0490   7.2789
     8.1867   8.4021   8.8405   9.0978   9.2813   9.7570  13.1721  13.2793
    13.5379  15.0383

          k = 0.0500 0.1500 0.3500 (  5080 PWs)   bands (ev):

   -46.0920 -22.4297 -22.3808 -22.3345  -6.7861  -6.0759  -5.9916  -5.1021
    -5.0776  -5.0470  -4.9848  -4.8964   3.4018   6.5122   7.1559   7.3332
     7.9386   8.2351   8.7854   9.0969   9.2637  10.0050  13.1753  13.6846
    13.8870  14.4280

          k = 0.0500 0.1500 0.4500 (  5079 PWs)   bands (ev):

   -46.0918 -22.4292 -22.3912 -22.3341  -6.7013  -6.0425  -5.9609  -5.1174
    -5.0858  -5.0466  -4.9938  -4.8988   3.2687   6.2502   7.2699   7.4942
     7.7673   7.9730   8.8228   9.1589   9.2356  10.2052  13.1577  13.9187
    13.9520  14.1299

          k = 0.0500 0.2500 0.2500 (  5076 PWs)   bands (ev):

   -46.0920 -22.4478 -22.3630 -22.3344  -6.7776  -6.1088  -5.9930  -5.0872
    -5.0725  -5.0550  -4.9331  -4.9135   3.4251   6.6557   7.0547   7.1888
     7.9690   8.1191   8.6091   9.0671   9.4639   9.8998  13.2526  13.5791
    13.8129  15.0012

          k = 0.0500 0.2500 0.3500 (  5080 PWs)   bands (ev):

   -46.0917 -22.4470 -22.3800 -22.3338  -6.6647  -6.0746  -5.9382  -5.0969
    -5.0767  -5.0564  -4.9437  -4.8922   3.2333   6.4763   6.9370   7.2645
     7.7497   8.0875   8.5049   8.8989   9.5762   9.9106  13.5501  13.6806
    14.0741  14.7192

          k = 0.0500 0.2500 0.4500 (  5084 PWs)   bands (ev):

   -46.0914 -22.4466 -22.3904 -22.3334  -6.5999  -6.0514  -5.8963  -5.1037
    -5.0842  -5.0575  -4.9370  -4.8885   3.1246   6.2480   6.9655   7.2616
     7.6608   8.0829   8.4420   8.8941   9.5960   9.8824  13.5514  13.9090
    14.2695  14.5328

          k = 0.0500 0.3500 0.3500 (  5079 PWs)   bands (ev):

   -46.0913 -22.4643 -22.3791 -22.3331  -6.5672  -6.0378  -5.8787  -5.0955
    -5.0794  -5.0591  -4.9661  -4.8343   3.0705   6.3005   6.6724   7.2599
     7.6567   7.9485   8.3887   8.8300   9.5647   9.9427  13.6435  13.9500
    14.2674  15.0296

          k = 0.0500 0.3500 0.4500 (  5079 PWs)   bands (ev):

   -46.0911 -22.4638 -22.3895 -22.3327  -6.5376  -6.0035  -5.8247  -5.0968
    -5.0828  -5.0624  -4.9743  -4.8000   2.9825   6.1800   6.5402   7.3184
     7.4875   8.1185   8.2892   8.7168   9.3703  10.0196  13.8803  13.9460
    14.4304  15.0894

          k = 0.0500 0.4500 0.4500 (  5100 PWs)   bands (ev):

   -46.0909 -22.4744 -22.3890 -22.3323  -6.5214  -5.9429  -5.7763  -5.0991
    -5.0821  -5.0629  -4.9983  -4.7489   2.8960   5.9984   6.4221   7.3091
     7.4506   8.0657   8.3396   8.6393   9.0561  10.1975  13.8658  14.1822
    14.5421  15.4473

          k = 0.1500 0.1500 0.1500 (  5095 PWs)   bands (ev):

   -46.0925 -22.4306 -22.3464 -22.3462  -6.9755  -6.1566  -6.0535  -5.0742
    -5.0655  -5.0474  -4.9227  -4.9104   3.7949   6.7996   6.8470   7.4543
     8.1933   8.3345   8.9451   9.2943   9.4260   9.4792  13.0338  13.2445
    13.2757  15.4795

          k = 0.1500 0.1500 0.2500 (  5084 PWs)   bands (ev):

   -46.0921 -22.4299 -22.3633 -22.3456  -6.8520  -6.1153  -6.0138  -5.0891
    -5.0665  -5.0436  -4.9394  -4.9002   3.5695   6.7414   6.8422   7.3059
     7.9705   8.1408   8.9667   9.2160   9.3878   9.6632  13.2100  13.4066
    13.5334  15.1418

          k = 0.1500 0.1500 0.3500 (  5082 PWs)   bands (ev):

   -46.0918 -22.4293 -22.3803 -22.3450  -6.7296  -6.0716  -5.9699  -5.1020
    -5.0594  -5.0372  -4.9628  -4.8964   3.3650   6.5112   6.8484   7.1878
     7.7654   8.1925   8.7131   9.2698   9.3999   9.8751  13.1532  13.7360
    13.8772  14.6331

          k = 0.1500 0.1500 0.4500 (  5084 PWs)   bands (ev):

   -46.0916 -22.4288 -22.3908 -22.3446  -6.6555  -6.0435  -5.9390  -5.1072
    -5.0541  -5.0295  -4.9792  -4.9000   3.2497   6.2562   6.8452   7.2354
     7.6692   8.3073   8.4655   9.3390   9.3860   9.9828  13.0903  13.9541
    14.1143  14.3882

          k = 0.1500 0.2500 0.2500 (  5081 PWs)   bands (ev):

   -46.0918 -22.4474 -22.3626 -22.3449  -6.7067  -6.1003  -5.9955  -5.0912
    -5.0755  -5.0302  -4.9140  -4.8960   3.4178   6.5971   6.7139   7.1282
     7.6769   7.9590   8.9003   9.2528   9.5062   9.7487  13.2906  13.5780
    13.7656  14.9439

          k = 0.1500 0.2500 0.3500 (  5080 PWs)   bands (ev):

   -46.0914 -22.4466 -22.3795 -22.3443  -6.5985  -6.0840  -5.9471  -5.0942
    -5.0652  -5.0196  -4.9171  -4.8767   3.2769   6.4500   6.6720   6.8936
     7.3854   8.0037   8.9169   9.0974   9.5763   9.7506  13.4056  13.7102
    14.0128  14.8988

          k = 0.1500 0.2500 0.4500 (  5077 PWs)   bands (ev):

   -46.0912 -22.4461 -22.3899 -22.3439  -6.5376  -6.0767  -5.9057  -5.0931
[...]
     7.4384   7.4790   9.0389   9.2548   9.5249   9.6009  13.2614  13.6539
    13.7567  15.2234

          k = 0.2500 0.2500 0.3500 (  5072 PWs)   bands (ev):

   -46.1575 -22.4996 -22.4548 -22.4373  -6.6489  -6.2725  -6.1328  -4.9029
    -4.8872  -4.7980  -4.6727  -4.5816   3.3028   6.1746   6.2235   6.5542
     7.1382   7.5081   8.9916   9.3466   9.4666   9.6326  13.4017  13.7087
    13.9445  15.4164

          k = 0.2500 0.2500 0.4500 (  5073 PWs)   bands (ev):

   -46.1573 -22.4991 -22.4652 -22.4368  -6.5818  -6.2340  -6.1608  -4.9002
    -4.8755  -4.7725  -4.6458  -4.5839   3.2343   6.0576   6.0956   6.4161
     7.0417   7.5807   8.8239   9.3794   9.4103   9.6789  13.5017  13.7851
    14.1240  15.6886

          k = 0.2500 0.3500 0.3500 (  5057 PWs)   bands (ev):

   -46.1571 -22.5166 -22.4540 -22.4366  -6.5919  -6.2801  -6.0475  -4.8927
    -4.8714  -4.7747  -4.6502  -4.5444   3.3556   5.9610   5.9842   6.3889
     6.7690   7.3161   8.7376   9.4134   9.4579   9.8222  13.5088  13.9165
    14.0917  15.6642

          k = 0.2500 0.3500 0.4500 (  5063 PWs)   bands (ev):

   -46.1569 -22.5161 -22.4644 -22.4362  -6.5543  -6.2363  -6.0651  -4.8876
    -4.8570  -4.7533  -4.6247  -4.5228   3.3383   5.8171   5.9252   6.1917
     6.6492   7.3567   8.4338   9.4154   9.4678   9.9363  13.7494  13.8725
    14.2284  16.0455

          k = 0.2500 0.4500 0.4500 (  5070 PWs)   bands (ev):

   -46.1567 -22.5266 -22.4639 -22.4357  -6.5528  -6.2383  -5.9864  -4.8838
    -4.8407  -4.7393  -4.6130  -4.4855   3.3950   5.7337   5.7473   6.0888
     6.4230   7.3066   8.0942   9.4387   9.4823  10.0947  13.8240  14.0685
    14.3203  16.2815

          k = 0.3500 0.3500 0.3500 (  5055 PWs)   bands (ev):

   -46.1568 -22.5159 -22.4534 -22.4533  -6.4651  -6.2977  -6.0919  -4.8639
    -4.8636  -4.7132  -4.5811  -4.5204   3.4202   5.7187   5.7964   6.1641
     6.7794   6.8186   8.1773   9.6922   9.7205   9.8653  13.6782  14.0379
    14.0649  16.0582

          k = 0.3500 0.3500 0.4500 (  5056 PWs)   bands (ev):

   -46.1566 -22.5153 -22.4637 -22.4529  -6.4122  -6.2756  -6.1236  -4.8600
    -4.8449  -4.6689  -4.5471  -4.5024   3.4423   5.5879   5.7571   5.9844
     6.5921   6.8367   7.7380   9.7848   9.8048   9.9527  13.8825  13.9998
    14.1935  16.4673

          k = 0.3500 0.4500 0.4500 (  5051 PWs)   bands (ev):

   -46.1564 -22.5258 -22.4632 -22.4525  -6.4180  -6.2924  -6.0420  -4.8506
    -4.8351  -4.6503  -4.5146  -4.4619   3.6349   5.4068   5.5561   5.8731
     6.4137   6.7373   7.2924   9.8341   9.8959  10.0978  14.0013  14.1436
    14.2744  16.7492

          k = 0.4500 0.4500 0.4500 (  5034 PWs)   bands (ev):

   -46.1561 -22.5253 -22.4628 -22.4628  -6.3364  -6.3202  -6.0744  -4.8346
    -4.8275  -4.5931  -4.4561  -4.4478   3.7768   5.3677   5.4246   5.7648
     6.4054   6.4559   6.6826  10.0113  10.0890  10.1055  14.1661  14.2454
    14.2501  17.1526

          k =-0.0500 0.1500 0.0500 (  5074 PWs)   bands (ev):

   -46.1593 -22.4854 -22.4123 -22.4123  -7.3090  -6.3779  -6.1722  -4.8985
    -4.8978  -4.8672  -4.8036  -4.6404   4.2652   6.6860   6.7069   7.3810
     8.5822   8.5923   9.0195   9.0204   9.2987   9.3617  12.4090  13.2021
    13.2324  14.6462

          k =-0.0500 0.2500 0.0500 (  5093 PWs)   bands (ev):

   -46.1589 -22.5028 -22.4117 -22.4117  -7.1817  -6.3411  -6.1126  -4.9105
    -4.9058  -4.8662  -4.7882  -4.6819   3.9079   6.7333   6.7472   7.1544
     8.3564   8.3695   8.9751   9.0728   9.3325   9.5568  12.4108  13.5870
    13.6268  14.6515

          k =-0.0500 0.3500 0.0500 (  5090 PWs)   bands (ev):

   -46.1586 -22.5201 -22.4110 -22.4110  -7.0525  -6.3024  -6.0497  -4.9223
    -4.9137  -4.8652  -4.7723  -4.7256   3.6154   6.5231   6.8074   6.9572
     8.1692   8.1833   8.9153   9.1853   9.3705  10.0200  12.4120  13.9584
    14.0057  14.2254

          k =-0.0500 0.4500 0.0500 (  5073 PWs)   bands (ev):

   -46.1584 -22.5307 -22.4106 -22.4106  -6.9718  -6.2774  -6.0088  -4.9295
    -4.9185  -4.8646  -4.7624  -4.7538   3.4580   6.2306   6.8438   6.9805
     8.0664   8.0701   8.8760   9.2382   9.3954  10.4714  12.4110  13.5276
    14.1810  14.2427

          k = 0.1500 0.0500 0.1500 (  5079 PWs)   bands (ev):

   -46.1591 -22.4739 -22.4230 -22.4227  -7.2157  -6.3578  -6.1903  -4.9191
    -4.8985  -4.8758  -4.7875  -4.6131   3.9983   6.6663   6.9095   7.3618
     8.3665   8.3946   8.8920   9.0631   9.1679   9.6440  12.8948  12.9856
    13.0522  15.2018

          k =-0.0500 0.2500 0.1500 (  5077 PWs)   bands (ev):

   -46.1587 -22.5024 -22.4222 -22.4113  -7.1046  -6.3317  -6.0985  -4.9128
    -4.9017  -4.8737  -4.7874  -4.6588   3.7581   6.5969   6.8090   7.2792
     8.0650   8.3047   8.7179   9.1080   9.1802   9.7712  12.7018  13.5656
    13.6426  14.9756

          k = 0.2500 0.0500 0.1500 (  5077 PWs)   bands (ev):

   -46.1587 -22.4733 -22.4398 -22.4222  -7.0730  -6.3237  -6.1849  -4.9365
    -4.8970  -4.8728  -4.7691  -4.6182   3.6812   6.6347   6.9478   7.2657
     8.0246   8.3250   8.7897   9.0637   9.1873   9.8109  12.9999  13.2279
    13.3360  15.2125

          k =-0.0500 0.3500 0.1500 (  5080 PWs)   bands (ev):

   -46.1584 -22.5196 -22.4215 -22.4106  -6.9849  -6.3003  -6.0310  -4.9233
    -4.8984  -4.8730  -4.7781  -4.6873   3.5119   6.3822   6.8153   7.0826
     7.9146   8.1588   8.6984   9.1271   9.1939  10.1195  12.6944  13.9260
    14.0165  14.4617

          k = 0.3500 0.0500 0.1500 (  5080 PWs)   bands (ev):

   -46.1584 -22.4726 -22.4567 -22.4215  -6.9217  -6.2870  -6.1875  -4.9481
    -4.8917  -4.8664  -4.7491  -4.6378   3.4203   6.3659   6.9800   7.3273
     7.7413   8.2731   8.5654   9.0969   9.2622  10.0845  13.0108  13.5925
    13.6903  14.9013

          k =-0.0500 0.4500 0.1500 (  5079 PWs)   bands (ev):

   -46.1582 -22.5302 -22.4211 -22.4102  -6.9122  -6.2797  -5.9855  -4.9299
    -4.8961  -4.8726  -4.7724  -4.7055   3.3745   6.1365   6.7963   7.0791
     7.8340   8.0691   8.7274   9.1190   9.2088  10.3882  12.6845  13.9520
    14.1515  14.2478

          k = 0.4500 0.0500 0.1500 (  5079 PWs)   bands (ev):

   -46.1581 -22.4721 -22.4672 -22.4211  -6.8224  -6.2561  -6.2010  -4.9522
    -4.8881  -4.8606  -4.7227  -4.6690   3.2818   6.1079   7.0840   7.3531
     7.7128   7.9736   8.5783   9.0871   9.3054  10.3313  13.0007  13.8278
    13.9423  14.4214

          k = 0.2500 0.0500 0.2500 (  5076 PWs)   bands (ev):

   -46.1584 -22.4726 -22.4392 -22.4390  -6.9386  -6.2891  -6.1945  -4.9392
    -4.8973  -4.8548  -4.7420  -4.6217   3.4188   6.6159   6.8404   7.2345
     7.8720   7.9823   8.7446   8.9758   9.3593   9.9078  13.2015  13.2938
    13.5568  15.3337

          k =-0.0500 0.3500 0.2500 (  5080 PWs)   bands (ev):

   -46.1580 -22.5187 -22.4384 -22.4100  -6.8856  -6.2813  -5.9989  -4.9210
    -4.8894  -4.8772  -4.7819  -4.6309   3.3527   6.2368   6.8901   7.0162
     7.7435   7.8654   8.4025   8.8788   9.4435  10.0748  13.1102  13.9866
    14.0744  14.8312

          k = 0.3500 0.0500 0.2500 (  5080 PWs)   bands (ev):

   -46.1580 -22.4720 -22.4559 -22.4384  -6.8006  -6.2538  -6.2046  -4.9400
    -4.8886  -4.8296  -4.7185  -4.6386   3.1859   6.3771   6.7676   7.2303
     7.6996   8.0056   8.4703   9.0261   9.4678   9.9688  13.2377  13.6169
    13.8095  15.1601

          k =-0.0500 0.4500 0.2500 (  5084 PWs)   bands (ev):

   -46.1578 -22.5293 -22.4379 -22.4096  -6.8326  -6.2602  -5.9440  -4.9273
    -4.8850  -4.8686  -4.7860  -4.6305   3.2439   6.0113   6.8146   7.0175
     7.6824   7.8313   8.3368   8.8988   9.4543  10.1571  13.0999  14.2052
    14.2740  14.6097

          k = 0.4500 0.0500 0.2500 (  5084 PWs)   bands (ev):

   -46.1578 -22.4715 -22.4664 -22.4379  -6.7138  -6.2283  -6.2142  -4.9392
    -4.8813  -4.8043  -4.6983  -4.6669   3.0553   6.1175   6.8483   7.1243
     7.7427   8.0167   8.2735   9.0900   9.4742  10.0066  13.2323  13.8603
    13.9934  14.9591

          k = 0.3500 0.0500 0.3500 (  5079 PWs)   bands (ev):

   -46.1577 -22.4713 -22.4552 -22.4551  -6.6876  -6.2193  -6.2102  -4.9330
    -4.8736  -4.7900  -4.6881  -4.6515   2.9657   6.3005   6.4956   7.2562
     7.6111   7.9087   8.4183   8.8486   9.7379   9.7466  13.5532  13.6636
    13.9557  15.2830

          k =-0.0500 0.4500 0.3500 (  5079 PWs)   bands (ev):

   -46.1575 -22.5284 -22.4547 -22.4089  -6.7819  -6.2001  -5.9025  -4.9257
    -4.8943  -4.8593  -4.7836  -4.5614   3.1222   5.9070   6.5832   7.0540
     7.4006   7.7605   8.2389   8.6631   9.5510  10.0254  13.4823  14.2320
    14.4016  15.1925

          k = 0.4500 0.0500 0.3500 (  5079 PWs)   bands (ev):

   -46.1575 -22.4708 -22.4656 -22.4547  -6.6264  -6.2074  -6.1935  -4.9291
    -4.8594  -4.7520  -4.6791  -4.6668   2.8367   6.0734   6.5065   7.2153
     7.5474   8.0597   8.2481   8.8156   9.5514   9.8805  13.6009  13.8759
    14.0659  15.2695

          k = 0.4500 0.0500 0.4500 (  5100 PWs)   bands (ev):

   -46.1573 -22.4703 -22.4651 -22.4650  -6.5894  -6.1795  -6.1760  -4.9241
    -4.8358  -4.7152  -4.6922  -4.6540   2.7055   5.9505   6.4050   7.3177
     7.3696   8.1680   8.2564   8.6278   9.2922  10.0404  13.8689  13.8924
    14.1208  15.2433

          k =-0.1500 0.2500 0.1500 (  5084 PWs)   bands (ev):

   -46.1585 -22.5019 -22.4218 -22.4217  -7.0265  -6.3237  -6.0945  -4.9176
    -4.8990  -4.8723  -4.7721  -4.6397   3.6578   6.5869   6.6158   7.3070
     7.9365   8.0136   8.7267   9.1343   9.3112   9.7448  12.8847  13.5317
    13.6620  15.2831

          k =-0.1500 0.3500 0.1500 (  5082 PWs)   bands (ev):

   -46.1582 -22.5191 -22.4211 -22.4210  -6.9139  -6.3022  -6.0241  -4.9267
    -4.8855  -4.8660  -4.7663  -4.6592   3.4590   6.3843   6.5203   7.0795
     7.8883   7.9006   8.5948   9.1679   9.3274  10.0162  12.8429  13.8858
    14.0144  14.6830

          k =-0.1500 0.4500 0.1500 (  5084 PWs)   bands (ev):

   -46.1579 -22.5297 -22.4207 -22.4206  -6.8470  -6.2887  -5.9748  -4.9313
    -4.8801  -4.8561  -4.7654  -4.6726   3.3427   6.1330   6.4734   7.0473
     7.8334   7.9115   8.5121   9.1857   9.3277  10.1803  12.8070  14.1130
    14.2307  14.3736

          k = 0.2500 0.1500 0.2500 (  5081 PWs)   bands (ev):

   -46.1582 -22.4833 -22.4388 -22.4385  -6.8713  -6.2916  -6.1670  -4.9265
    -4.9011  -4.8468  -4.7293  -4.6101   3.4209   6.5121   6.6580   6.9623
     7.6866   7.9103   8.9236   9.0594   9.4051   9.7525  13.2827  13.4143
    13.5903  15.3275

          k =-0.1500 0.3500 0.2500 (  5080 PWs)   bands (ev):

   -46.1578 -22.5183 -22.4379 -22.4204  -6.8083  -6.2920  -6.0111  -4.9204
    -4.8905  -4.8425  -4.7483  -4.6122   3.3653   6.2238   6.4831   6.8581
     7.3902   7.8124   8.7118   9.0837   9.4940   9.8605  13.1321  13.9123
    14.0331  15.0138

          k = 0.3500 0.1500 0.2500 (  5080 PWs)   bands (ev):

   -46.1578 -22.4825 -22.4555 -22.4380  -6.7355  -6.2620  -6.1852  -4.9253
    -4.8896  -4.8175  -4.7001  -4.6173   3.2338   6.3405   6.5708   6.7609
     7.4422   7.9699   8.7818   9.1222   9.5032   9.7441  13.3084  13.6297
    13.8380  15.2483

          k =-0.1500 0.4500 0.2500 (  5077 PWs)   bands (ev):

   -46.1576 -22.5288 -22.4375 -22.4200  -6.7578  -6.2823  -5.9540  -4.9229
    -4.8840  -4.8226  -4.7537  -4.6109   3.2828   6.0222   6.3884   6.7679
     7.3692   7.7950   8.6128   9.1177   9.5035   9.8774  13.1184  14.1384
    14.2190  14.9595

          k = 0.4500 0.1500 0.2500 (  5077 PWs)   bands (ev):

   -46.1576 -22.4820 -22.4660 -22.4375  -6.6517  -6.2324  -6.2060  -4.9234
    -4.8809  -4.7908  -4.6730  -4.6409   3.1240   6.1108   6.5278   6.7278
     7.3572   8.0744   8.6078   9.1806   9.5127   9.7208  13.2993  13.8139
    14.0402  15.2713

          k = 0.3500 0.1500 0.3500 (  5081 PWs)   bands (ev):

   -46.1575 -22.4818 -22.4548 -22.4547  -6.6138  -6.2388  -6.2072  -4.9168
    -4.8714  -4.7699  -4.6659  -4.6197   3.0642   6.2862   6.3859   6.6078
     7.1314   7.9420   8.8943   9.0043   9.4556   9.7442  13.5253  13.6979
    13.9595  15.5062

          k =-0.1500 0.4500 0.3500 (  5079 PWs)   bands (ev):

   -46.1573 -22.5279 -22.4542 -22.4193  -6.7013  -6.2342  -5.9336  -4.9163
    -4.8744  -4.8151  -4.7324  -4.5467   3.2169   5.8907   6.3957   6.5446
     6.7968   7.8456   8.7187   8.9412   9.2903   9.9505  13.4886  14.1312
    14.3063  15.5011

          k = 0.4500 0.1500 0.3500 (  5079 PWs)   bands (ev):

   -46.1573 -22.4813 -22.4652 -22.4543  -6.5460  -6.2248  -6.2111  -4.9123
    -4.8561  -4.7263  -4.6499  -4.6322   2.9578   6.0656   6.4157   6.5562
     6.9892   8.0032   8.7676   9.0552   9.2326   9.8677  13.6026  13.8396
    14.0889  15.7424

          k = 0.4500 0.1500 0.4500 (  5073 PWs)   bands (ev):

   -46.1570 -22.4808 -22.4647 -22.4647  -6.4988  -6.2075  -6.2066  -4.9070
    -4.8336  -4.6759  -4.6436  -4.6333   2.8500   5.9408   6.3769   6.6295
     6.7210   8.0205   8.7415   8.9583   9.0015  10.0356  13.8368  13.8709
    14.1496  15.8462

          k =-0.2500 0.3500 0.2500 (  5072 PWs)   bands (ev):

   -46.1575 -22.5175 -22.4373 -22.4372  -6.6892  -6.3006  -6.0285  -4.9059
    -4.8862  -4.8063  -4.6961  -4.5795   3.3702   6.1176   6.1816   6.5807
     7.1698   7.3833   8.9475   9.3244   9.5439   9.6451  13.2590  13.9467
    13.9638  15.3023

          k =-0.2500 0.4500 0.2500 (  5073 PWs)   bands (ev):

   -46.1573 -22.5280 -22.4369 -22.4367  -6.6472  -6.3036  -5.9666  -4.9054
    -4.8762  -4.7835  -4.6920  -4.5718   3.3367   5.9950   6.0393   6.3968
     7.1288   7.3494   8.8129   9.3517   9.5016   9.6991  13.2925  14.1263
    14.1541  15.4472

          k = 0.3500 0.2500 0.3500 (  5057 PWs)   bands (ev):

   -46.1571 -22.4989 -22.4541 -22.4540  -6.5174  -6.2690  -6.1745  -4.8902
    -4.8677  -4.7415  -4.6249  -4.5695   3.2350   6.0503   6.1043   6.2782
     6.8887   7.3180   8.7243   9.4811   9.4846   9.7652  13.5390  13.8246
    14.0039  15.7440

          k =-0.2500 0.4500 0.3500 (  5063 PWs)   bands (ev):

   -46.1569 -22.5271 -22.4536 -22.4361  -6.5712  -6.2838  -5.9781  -4.8902
    -4.8577  -4.7561  -4.6394  -4.5211   3.3769   5.8055   5.9054   6.1869
     6.6409   7.2754   8.4709   9.4306   9.4697   9.9322  13.5895  14.0885
    14.2280  15.9147

          k = 0.4500 0.2500 0.3500 (  5063 PWs)   bands (ev):

   -46.1569 -22.4984 -22.4644 -22.4536  -6.4441  -6.2482  -6.2086  -4.8852
    -4.8513  -4.6961  -4.5995  -4.5682   3.1789   5.9652   6.0575   6.1150
     6.7268   7.3365   8.4015   9.5060   9.5171   9.8714  13.6956  13.8653
    14.1327  16.1117

          k = 0.4500 0.2500 0.4500 (  5070 PWs)   bands (ev):

   -46.1567 -22.4979 -22.4640 -22.4639  -6.3597  -6.2527  -6.2391  -4.8793
    -4.8310  -4.6399  -4.5719  -4.5670   3.1240   5.9065   6.0425   6.0456
     6.4695   7.2991   8.0046   9.5475   9.5497  10.0281  13.8822  13.9295
    14.1820  16.4475

          k =-0.3500 0.4500 0.3500 (  5056 PWs)   bands (ev):

   -46.1566 -22.5263 -22.4529 -22.4528  -6.4529  -6.3149  -6.0180  -4.8616
    -4.8474  -4.6935  -4.5539  -4.4905   3.5397   5.5843   5.6177   5.9891
     6.5694   6.8003   7.8022   9.7212   9.8185   9.9729  13.8049  14.1333
    14.2127  16.3588

          k = 0.4500 0.3500 0.4500 (  5051 PWs)   bands (ev):

   -46.1564 -22.5148 -22.4632 -22.4632  -6.3188  -6.2953  -6.1655  -4.8517
    -4.8288  -4.6122  -4.5004  -4.4927   3.4791   5.5950   5.6415   5.8607
     6.4563   6.6969   7.2173   9.9220   9.9276  10.0231  14.0397  14.0953
    14.2066  16.8545

     the Fermi energy is    10.3827 ev

!    total energy              =    -364.96131949 Ry
     Harris-Foulkes estimate   =    -364.96131949 Ry
     estimated scf accuracy    <          3.0E-10 Ry

     The total energy is the sum of the following terms:

     one-electron contribution =     -86.25125498 Ry
     hartree contribution      =      72.52441031 Ry
     xc contribution           =     -85.88127537 Ry
     ewald contribution        =    -265.35927507 Ry
     smearing contrib. (-TS)   =       0.00607562 Ry

     convergence has been achieved in   8 iterations

     Forces acting on atoms (cartesian axes, Ry/au):

     atom    1 type  1   force =     0.00000000    0.00930943    0.00000000
     atom    2 type  2   force =     0.00000000   -0.00930887    0.00000000
     atom    3 type  3   force =     0.00000000   -0.00003050    0.00000000
     atom    4 type  3   force =     0.00000000    0.00006045    0.00000000
     atom    5 type  3   force =     0.00000000   -0.00003050    0.00000000

     Total force =     0.000074     Total SCF correction =     0.000010
     SCF correction compared to forces is large: reduce conv_thr to get better values


     Computing stress (Cartesian axis) and pressure

          total   stress  (Ry/bohr**3)                   (kbar)     P=   35.82
   0.00014127   0.00000000   0.00000000         20.78      0.00      0.00
   0.00000000   0.00044800   0.00000000          0.00     65.90      0.00
   0.00000000   0.00000000   0.00014127          0.00      0.00     20.78


     bfgs converged in  24 scf cycles and  23 bfgs steps
     (criteria: energy <  1.0E-04 Ry, force <  1.0E-03 Ry/Bohr)

     End of BFGS Geometry Optimization

     Final energy   =    -364.9613194852 Ry
Begin final coordinates

ATOMIC_POSITIONS (crystal)
Pb       0.000000000   0.000000000   0.000000000    0   0   0
Ti       0.500000000   0.547000000   0.500000000    0   0   0
O        0.500000000   0.602962224   0.000000000
O        0.500000000   0.094058592   0.500000000
O        0.000000000   0.602962224   0.500000000
End final coordinates



     Writing output data file PbTiO3.save/
 
     init_run     :      9.62s CPU     10.33s WALL (       1 calls)
     electrons    :   4943.82s CPU   5189.15s WALL (      24 calls)
     update_pot   :      6.59s CPU      7.01s WALL (      23 calls)
     forces       :     60.99s CPU     74.11s WALL (      24 calls)
     stress       :    264.46s CPU    298.99s WALL (      24 calls)

     Called by init_run:
     wfcinit      :      7.25s CPU      7.32s WALL (       1 calls)
     potinit      :      0.23s CPU      0.26s WALL (       1 calls)
     hinit0       :      1.31s CPU      1.34s WALL (       1 calls)

     Called by electrons:
     c_bands      :   3915.95s CPU   3945.52s WALL (     216 calls)
     sum_band     :    816.04s CPU    916.53s WALL (     216 calls)
     v_of_rho     :     49.22s CPU     51.81s WALL (     239 calls)
     newd         :    180.33s CPU    303.94s WALL (     239 calls)
     mix_rho      :      3.00s CPU      3.26s WALL (     216 calls)

     Called by c_bands:
     init_us_2    :    108.05s CPU    108.63s WALL (   36075 calls)
     cegterg      :   3613.41s CPU   3641.46s WALL (   16200 calls)

     Called by sum_band:
     sum_band:bec :      0.28s CPU      0.29s WALL (   16200 calls)
     addusdens    :    193.44s CPU    290.84s WALL (     216 calls)

     Called by *egterg:
     h_psi        :   3017.35s CPU   3024.07s WALL (   72466 calls)
     s_psi        :     94.14s CPU     94.57s WALL (   72466 calls)
     g_psi        :     35.08s CPU     35.22s WALL (   56191 calls)
     cdiaghg      :    100.78s CPU    118.19s WALL (   70591 calls)

     Called by h_psi:
     h_psi:pot    :   3005.36s CPU   3011.56s WALL (   72466 calls)
     h_psi:calbec :     93.79s CPU     94.03s WALL (   72466 calls)
     vloc_psi     :   2816.52s CPU   2822.32s WALL (   72466 calls)
     add_vuspsi   :     94.63s CPU     94.85s WALL (   72466 calls)

     General routines
     calbec       :    141.37s CPU    141.72s WALL (   97666 calls)
     fft          :     12.43s CPU     12.47s WALL (    3683 calls)
     ffts         :      0.50s CPU      0.51s WALL (     455 calls)
     fftw         :   3026.10s CPU   3032.41s WALL ( 2778252 calls)
     interpolate  :      1.34s CPU      1.40s WALL (     239 calls)
 
     Parallel routines
 
     PWSCF        :      1h28m CPU      1h33m WALL

 
   This run was terminated on:   1:43:13  14May2020            

=------------------------------------------------------------------------------=
   JOB DONE.
=------------------------------------------------------------------------------=
