
     Program PWSCF v.6.4.1 starts on 16May2020 at  9:28:58 

     This program is part of the open-source Quantum ESPRESSO suite
     for quantum simulation of materials; please cite
         "P. Giannozzi et al., J. Phys.:Condens. Matter 21 395502 (2009);
         "P. Giannozzi et al., J. Phys.:Condens. Matter 29 465901 (2017);
          URL http://www.quantum-espresso.org", 
     in publications or presentations arising from this work. More details at
     http://www.quantum-espresso.org/quote

     Parallel version (MPI), running on     1 processors

     MPI processes distributed on     1 nodes
     Reading input from PTO_vc_7.37_10.pw.in

     Current dimensions of program PWSCF are:
     Max number of different atomic species (ntypx) = 10
     Max number of k-points (npk) =  40000
     Max angular momentum in pseudopotentials (lmaxx) =  3
     Message from routine read_upf::
     Pseudo file Pb.pbe-dn-rrkjus_psl.0.2.2.UPF has been fixed on the fly.
To avoid this message in the future, permanently fix 
 your pseudo files following these instructions: 
https://gitlab.com/QEF/q-e/blob/master/upftools/how_to_fix_upf.md
     Message from routine read_upf::
     Pseudo file O.pbe-n-rrkjus_psl.0.1.UPF has been fixed on the fly.
To avoid this message in the future, permanently fix 
 your pseudo files following these instructions: 
https://gitlab.com/QEF/q-e/blob/master/upftools/how_to_fix_upf.md
               file Pb.pbe-dn-rrkjus_psl.0.2.2.UPF: wavefunction(s)  6S renormalized

     Subspace diagonalization in iterative solution of the eigenvalue problem:
     a serial algorithm will be used


     G-vector sticks info
     --------------------
     sticks:   dense  smooth     PW     G-vecs:    dense   smooth      PW
     Sum        3457    1369    401               152835    38641    6031



     bravais-lattice index     =            1
     lattice parameter (alat)  =       7.3700  a.u.
     unit-cell volume          =     400.3156 (a.u.)^3
     number of atoms/cell      =            5
     number of atomic types    =            3
     number of electrons       =        44.00
     number of Kohn-Sham states=           26
     kinetic-energy cutoff     =      80.0000  Ry
     charge density cutoff     =     800.0000  Ry
     convergence threshold     =      1.0E-08
     mixing beta               =       0.7000
     number of iterations used =            8  plain     mixing
     Exchange-correlation      = PBE ( 1  4  3  4 0 0)
     nstep                     =           50


     celldm(1)=   7.370000  celldm(2)=   0.000000  celldm(3)=   0.000000
     celldm(4)=   0.000000  celldm(5)=   0.000000  celldm(6)=   0.000000

     crystal axes: (cart. coord. in units of alat)
               a(1) = (   1.000000   0.000000   0.000000 )  
               a(2) = (   0.000000   1.000000   0.000000 )  
               a(3) = (   0.000000   0.000000   1.000000 )  

     reciprocal axes: (cart. coord. in units 2 pi/alat)
               b(1) = (  1.000000  0.000000  0.000000 )  
               b(2) = (  0.000000  1.000000  0.000000 )  
               b(3) = (  0.000000  0.000000  1.000000 )  


     PseudoPot. # 1 for Pb read from file:
     ./Pb.pbe-dn-rrkjus_psl.0.2.2.UPF
     MD5 check sum: 7afc420059c37d6888fc09c0f121e83f
     Pseudo is Ultrasoft + core correction, Zval = 14.0
     Generated using "atomic" code by A. Dal Corso v.5.0.2 svn rev. 9415
     Using radial grid of 1281 points,  6 beta functions with: 
                l(1) =   0
                l(2) =   0
                l(3) =   1
                l(4) =   1
                l(5) =   2
                l(6) =   2
     Q(r) pseudized with 0 coefficients 


     PseudoPot. # 2 for Ti read from file:
     ./Ti.pbe-sp-van_ak.UPF
     MD5 check sum: 8e4df49b7f0d34bbd5052bf3f5ea0213
     Pseudo is Ultrasoft, Zval = 12.0
     Generated by new atomic code, or converted to UPF format
     Using radial grid of  851 points,  6 beta functions with: 
                l(1) =   0
                l(2) =   0
                l(3) =   1
                l(4) =   1
                l(5) =   2
                l(6) =   2
     Q(r) pseudized with  8 coefficients,  rinner =    1.000   1.000   1.000
                                                       1.000   1.000

     PseudoPot. # 3 for O  read from file:
     ./O.pbe-n-rrkjus_psl.0.1.UPF
     MD5 check sum: e057bbcf3229fb5d8c36c0c92f9568b4
     Pseudo is Ultrasoft + core correction, Zval =  6.0
     Generated using "atomic" code by A. Dal Corso v.5.0.2 svn rev. 9415
     Using radial grid of 1095 points,  4 beta functions with: 
                l(1) =   0
                l(2) =   0
                l(3) =   1
                l(4) =   1
     Q(r) pseudized with 0 coefficients 


     atomic species   valence    mass     pseudopotential
        Pb            14.00   207.20000     Pb( 1.00)
        Ti            12.00    47.87000     Ti( 1.00)
        O              6.00    16.00000     O ( 1.00)

      8 Sym. Ops. (no inversion) found



   Cartesian axes

     site n.     atom                  positions (alat units)
         1           Pb  tau(   1) = (   0.0000000   0.0000000   0.0000000  )
         2           Ti  tau(   2) = (   0.5000000   0.5480000   0.5000000  )
         3           O   tau(   3) = (   0.5000000   0.5000000   0.0000000  )
         4           O   tau(   4) = (   0.5000000   0.0000000   0.5000000  )
         5           O   tau(   5) = (   0.0000000   0.5000000   0.5000000  )

     number of k points=    75  Marzari-Vanderbilt smearing, width (Ry)=  0.0250
                       cart. coord. in units 2pi/alat
        k(    1) = (   0.0500000   0.0500000   0.0500000), wk =   0.0160000
        k(    2) = (   0.0500000   0.0500000   0.1500000), wk =   0.0320000
        k(    3) = (   0.0500000   0.0500000   0.2500000), wk =   0.0320000
        k(    4) = (   0.0500000   0.0500000   0.3500000), wk =   0.0320000
        k(    5) = (   0.0500000   0.0500000   0.4500000), wk =   0.0320000
        k(    6) = (   0.0500000   0.1500000   0.1500000), wk =   0.0320000
        k(    7) = (   0.0500000   0.1500000   0.2500000), wk =   0.0320000
        k(    8) = (   0.0500000   0.1500000   0.3500000), wk =   0.0320000
        k(    9) = (   0.0500000   0.1500000   0.4500000), wk =   0.0320000
        k(   10) = (   0.0500000   0.2500000   0.2500000), wk =   0.0320000
        k(   11) = (   0.0500000   0.2500000   0.3500000), wk =   0.0320000
        k(   12) = (   0.0500000   0.2500000   0.4500000), wk =   0.0320000
        k(   13) = (   0.0500000   0.3500000   0.3500000), wk =   0.0320000
        k(   14) = (   0.0500000   0.3500000   0.4500000), wk =   0.0320000
        k(   15) = (   0.0500000   0.4500000   0.4500000), wk =   0.0320000
        k(   16) = (   0.1500000   0.1500000   0.1500000), wk =   0.0160000
        k(   17) = (   0.1500000   0.1500000   0.2500000), wk =   0.0320000
        k(   18) = (   0.1500000   0.1500000   0.3500000), wk =   0.0320000
        k(   19) = (   0.1500000   0.1500000   0.4500000), wk =   0.0320000
        k(   20) = (   0.1500000   0.2500000   0.2500000), wk =   0.0320000
        k(   21) = (   0.1500000   0.2500000   0.3500000), wk =   0.0320000
        k(   22) = (   0.1500000   0.2500000   0.4500000), wk =   0.0320000
        k(   23) = (   0.1500000   0.3500000   0.3500000), wk =   0.0320000
        k(   24) = (   0.1500000   0.3500000   0.4500000), wk =   0.0320000
        k(   25) = (   0.1500000   0.4500000   0.4500000), wk =   0.0320000
        k(   26) = (   0.2500000   0.2500000   0.2500000), wk =   0.0160000
        k(   27) = (   0.2500000   0.2500000   0.3500000), wk =   0.0320000
        k(   28) = (   0.2500000   0.2500000   0.4500000), wk =   0.0320000
        k(   29) = (   0.2500000   0.3500000   0.3500000), wk =   0.0320000
        k(   30) = (   0.2500000   0.3500000   0.4500000), wk =   0.0320000
        k(   31) = (   0.2500000   0.4500000   0.4500000), wk =   0.0320000
        k(   32) = (   0.3500000   0.3500000   0.3500000), wk =   0.0160000
        k(   33) = (   0.3500000   0.3500000   0.4500000), wk =   0.0320000
        k(   34) = (   0.3500000   0.4500000   0.4500000), wk =   0.0320000
        k(   35) = (   0.4500000   0.4500000   0.4500000), wk =   0.0160000
        k(   36) = (  -0.0500000   0.1500000   0.0500000), wk =   0.0160000
        k(   37) = (  -0.0500000   0.2500000   0.0500000), wk =   0.0160000
        k(   38) = (  -0.0500000   0.3500000   0.0500000), wk =   0.0160000
        k(   39) = (  -0.0500000   0.4500000   0.0500000), wk =   0.0160000
        k(   40) = (   0.1500000   0.0500000   0.1500000), wk =   0.0160000
        k(   41) = (  -0.0500000   0.2500000   0.1500000), wk =   0.0320000
        k(   42) = (   0.2500000   0.0500000   0.1500000), wk =   0.0320000
        k(   43) = (  -0.0500000   0.3500000   0.1500000), wk =   0.0320000
        k(   44) = (   0.3500000   0.0500000   0.1500000), wk =   0.0320000
        k(   45) = (  -0.0500000   0.4500000   0.1500000), wk =   0.0320000
        k(   46) = (   0.4500000   0.0500000   0.1500000), wk =   0.0320000
        k(   47) = (   0.2500000   0.0500000   0.2500000), wk =   0.0160000
        k(   48) = (  -0.0500000   0.3500000   0.2500000), wk =   0.0320000
        k(   49) = (   0.3500000   0.0500000   0.2500000), wk =   0.0320000
        k(   50) = (  -0.0500000   0.4500000   0.2500000), wk =   0.0320000
        k(   51) = (   0.4500000   0.0500000   0.2500000), wk =   0.0320000
        k(   52) = (   0.3500000   0.0500000   0.3500000), wk =   0.0160000
        k(   53) = (  -0.0500000   0.4500000   0.3500000), wk =   0.0320000
        k(   54) = (   0.4500000   0.0500000   0.3500000), wk =   0.0320000
        k(   55) = (   0.4500000   0.0500000   0.4500000), wk =   0.0160000
        k(   56) = (  -0.1500000   0.2500000   0.1500000), wk =   0.0160000
        k(   57) = (  -0.1500000   0.3500000   0.1500000), wk =   0.0160000
        k(   58) = (  -0.1500000   0.4500000   0.1500000), wk =   0.0160000
        k(   59) = (   0.2500000   0.1500000   0.2500000), wk =   0.0160000
        k(   60) = (  -0.1500000   0.3500000   0.2500000), wk =   0.0320000
        k(   61) = (   0.3500000   0.1500000   0.2500000), wk =   0.0320000
        k(   62) = (  -0.1500000   0.4500000   0.2500000), wk =   0.0320000
        k(   63) = (   0.4500000   0.1500000   0.2500000), wk =   0.0320000
        k(   64) = (   0.3500000   0.1500000   0.3500000), wk =   0.0160000
        k(   65) = (  -0.1500000   0.4500000   0.3500000), wk =   0.0320000
        k(   66) = (   0.4500000   0.1500000   0.3500000), wk =   0.0320000
        k(   67) = (   0.4500000   0.1500000   0.4500000), wk =   0.0160000
        k(   68) = (  -0.2500000   0.3500000   0.2500000), wk =   0.0160000
        k(   69) = (  -0.2500000   0.4500000   0.2500000), wk =   0.0160000
        k(   70) = (   0.3500000   0.2500000   0.3500000), wk =   0.0160000
        k(   71) = (  -0.2500000   0.4500000   0.3500000), wk =   0.0320000
        k(   72) = (   0.4500000   0.2500000   0.3500000), wk =   0.0320000
        k(   73) = (   0.4500000   0.2500000   0.4500000), wk =   0.0160000
        k(   74) = (  -0.3500000   0.4500000   0.3500000), wk =   0.0160000
        k(   75) = (   0.4500000   0.3500000   0.4500000), wk =   0.0160000

     Dense  grid:   152835 G-vectors     FFT dimensions: (  72,  72,  72)

     Smooth grid:    38641 G-vectors     FFT dimensions: (  45,  45,  45)

     Estimated max dynamical RAM per process >     732.62 MB

     Check: negative core charge=   -0.000005

     Initial potential from superposition of free atoms

     starting charge   42.99760, renormalised to   44.00000
     Starting wfcs are   31 randomized atomic wfcs

     total cpu time spent up to now is       37.1 secs

     Self-consistent Calculation

     iteration #  1     ecut=    80.00 Ry     beta= 0.70
     Davidson diagonalization with overlap
     ethr =  1.00E-02,  avg # of iterations =  2.0

     total cpu time spent up to now is       66.5 secs

     total energy              =    -364.41210917 Ry
     Harris-Foulkes estimate   =    -365.27952492 Ry
     estimated scf accuracy    <       1.09115456 Ry

     iteration #  2     ecut=    80.00 Ry     beta= 0.70
     Davidson diagonalization with overlap
     ethr =  2.48E-03,  avg # of iterations =  4.1

     total cpu time spent up to now is      109.1 secs

     total energy              =    -363.72856355 Ry
     Harris-Foulkes estimate   =    -365.60939386 Ry
     estimated scf accuracy    <       6.01610370 Ry

     iteration #  3     ecut=    80.00 Ry     beta= 0.70
     Davidson diagonalization with overlap
     ethr =  2.48E-03,  avg # of iterations =  4.6

     total cpu time spent up to now is      151.9 secs

     total energy              =    -364.91923208 Ry
     Harris-Foulkes estimate   =    -365.06877726 Ry
     estimated scf accuracy    <       0.40285130 Ry

     iteration #  4     ecut=    80.00 Ry     beta= 0.70
     Davidson diagonalization with overlap
     ethr =  9.16E-04,  avg # of iterations =  3.5

     total cpu time spent up to now is      181.8 secs

     total energy              =    -364.91554846 Ry
     Harris-Foulkes estimate   =    -364.95100299 Ry
     estimated scf accuracy    <       0.10851368 Ry

     iteration #  5     ecut=    80.00 Ry     beta= 0.70
     Davidson diagonalization with overlap
     ethr =  2.47E-04,  avg # of iterations =  4.2

     total cpu time spent up to now is      219.4 secs

     total energy              =    -364.94489399 Ry
     Harris-Foulkes estimate   =    -364.94567934 Ry
     estimated scf accuracy    <       0.00354142 Ry

     iteration #  6     ecut=    80.00 Ry     beta= 0.70
     Davidson diagonalization with overlap
     ethr =  8.05E-06,  avg # of iterations =  3.9

     total cpu time spent up to now is      256.4 secs

     total energy              =    -364.94513389 Ry
     Harris-Foulkes estimate   =    -364.94585316 Ry
     estimated scf accuracy    <       0.00305770 Ry

     iteration #  7     ecut=    80.00 Ry     beta= 0.70
     Davidson diagonalization with overlap
     ethr =  6.95E-06,  avg # of iterations =  2.1

     total cpu time spent up to now is      284.0 secs

     total energy              =    -364.94512769 Ry
     Harris-Foulkes estimate   =    -364.94537043 Ry
     estimated scf accuracy    <       0.00054581 Ry

     iteration #  8     ecut=    80.00 Ry     beta= 0.70
     Davidson diagonalization with overlap
     ethr =  1.24E-06,  avg # of iterations =  3.9

     total cpu time spent up to now is      319.1 secs

     total energy              =    -364.94530219 Ry
     Harris-Foulkes estimate   =    -364.94533507 Ry
     estimated scf accuracy    <       0.00011599 Ry

     iteration #  9     ecut=    80.00 Ry     beta= 0.70
     Davidson diagonalization with overlap
     ethr =  2.64E-07,  avg # of iterations =  2.3

     total cpu time spent up to now is      346.8 secs

     total energy              =    -364.94531014 Ry
     Harris-Foulkes estimate   =    -364.94531337 Ry
     estimated scf accuracy    <       0.00001012 Ry

     iteration # 10     ecut=    80.00 Ry     beta= 0.70
     Davidson diagonalization with overlap
     ethr =  2.30E-08,  avg # of iterations =  3.7

     total cpu time spent up to now is      383.8 secs

     total energy              =    -364.94531456 Ry
     Harris-Foulkes estimate   =    -364.94531466 Ry
     estimated scf accuracy    <       0.00000068 Ry

     iteration # 11     ecut=    80.00 Ry     beta= 0.70
     Davidson diagonalization with overlap
     ethr =  1.55E-09,  avg # of iterations =  2.5

     total cpu time spent up to now is      414.3 secs

     total energy              =    -364.94531453 Ry
     Harris-Foulkes estimate   =    -364.94531464 Ry
     estimated scf accuracy    <       0.00000031 Ry

     iteration # 12     ecut=    80.00 Ry     beta= 0.70
     Davidson diagonalization with overlap
     ethr =  7.14E-10,  avg # of iterations =  3.0

     total cpu time spent up to now is      445.2 secs

     End of self-consistent calculation

          k = 0.0500 0.0500 0.0500 (  4855 PWs)   bands (ev):

   -45.1038 -21.5104 -21.3791 -21.3790  -6.7027  -5.6237  -5.5040  -4.2145
    -4.1943  -4.1939  -4.0550  -4.0428   5.3107   7.4189   7.4740   7.6553
     9.3978   9.4219   9.8259   9.9965  10.2676  10.2723  13.3899  13.9058
    13.9145  15.8330

          k = 0.0500 0.0500 0.1500 (  4845 PWs)   bands (ev):

   -45.1035 -21.5099 -21.3926 -21.3785  -6.6127  -5.5858  -5.4684  -4.2241
    -4.2040  -4.1934  -4.0890  -4.0389   4.9505   7.4794   7.5613   7.8774
     9.1953   9.3601   9.7980   9.8722  10.1125  10.2624  13.7323  13.9148
    14.0079  16.0439

          k = 0.0500 0.0500 0.2500 (  4839 PWs)   bands (ev):

   -45.1030 -21.5091 -21.4145 -21.3777  -6.4631  -5.5196  -5.4110  -4.2402
    -4.2202  -4.1924  -4.1503  -4.0301   4.5245   7.5270   7.6620   7.8591
     9.0949   9.1665   9.7212   9.7868  10.0387  10.3446  13.9149  14.2312
    14.3530  16.0373

          k = 0.0500 0.0500 0.3500 (  4837 PWs)   bands (ev):

   -45.1025 -21.5082 -21.4363 -21.3769  -6.3079  -5.4436  -5.3562  -4.2640
    -4.2388  -4.2068  -4.1913  -4.0234   4.2013   7.1690   7.8344   7.9929
     8.8252   8.9477   9.6279   9.7196  10.1369  10.7890  13.9149  14.6840
    14.7820  15.2358

          k = 0.0500 0.0500 0.4500 (  4849 PWs)   bands (ev):

   -45.1023 -21.5077 -21.4496 -21.3764  -6.2087  -5.3868  -5.3276  -4.2955
    -4.2515  -4.2273  -4.1907  -4.0205   4.0369   6.8646   7.9988   8.2319
     8.5496   8.6837   9.5848   9.7142  10.1875  11.2903  13.8978  14.4765
    14.9525  15.0776

          k = 0.0500 0.1500 0.1500 (  4852 PWs)   bands (ev):

   -45.1032 -21.5238 -21.3921 -21.3780  -6.5090  -5.5579  -5.4385  -4.2245
    -4.2175  -4.2021  -4.0793  -4.0592   4.6878   7.4350   7.5340   8.0809
     8.9710   9.1905   9.6525   9.8976  10.0749  10.3562  13.7321  14.1815
    14.2531  16.1581

          k = 0.0500 0.1500 0.2500 (  4839 PWs)   bands (ev):

   -45.1027 -21.5229 -21.4139 -21.3772  -6.3640  -5.5011  -5.3867  -4.2452
    -4.2294  -4.2015  -4.1114  -4.0476   4.3490   7.4047   7.6560   7.9788
     8.8389   9.0302   9.5180   9.8177   9.9463  10.5469  14.1615  14.2479
    14.5376  16.1668

          k = 0.0500 0.1500 0.3500 (  4849 PWs)   bands (ev):

   -45.1023 -21.5220 -21.4356 -21.3764  -6.2160  -5.4445  -5.3281  -4.2684
    -4.2410  -4.2009  -4.1404  -4.0405   4.0710   7.1433   7.7657   7.9818
     8.5966   8.8672   9.4868   9.7854   9.9271  10.8475  14.1725  14.6768
    14.9091  15.4113

          k = 0.0500 0.1500 0.4500 (  4848 PWs)   bands (ev):

   -45.1020 -21.5214 -21.4489 -21.3759  -6.1232  -5.4095  -5.2875  -4.2858
    -4.2512  -4.2005  -4.1502  -4.0407   3.9238   6.8680   7.8521   8.1603
     8.4321   8.6031   9.5153   9.8430   9.8977  11.0906  14.1502  14.8855
    14.9463  15.1728

          k = 0.0500 0.2500 0.2500 (  4846 PWs)   bands (ev):

   -45.1023 -21.5451 -21.4129 -21.3763  -6.2032  -5.4721  -5.3380  -4.2512
    -4.2337  -4.2119  -4.0803  -4.0637   4.0857   7.2543   7.6829   7.8625
     8.6254   8.7490   9.2582   9.8044  10.1390  10.7254  14.2093  14.6011
    14.8317  16.0604

          k = 0.0500 0.2500 0.3500 (  4848 PWs)   bands (ev):

   -45.1018 -21.5441 -21.4345 -21.3755  -6.0784  -5.4351  -5.2679  -4.2624
    -4.2400  -4.2132  -4.0906  -4.0392   3.8669   7.0908   7.5945   7.8686
     8.3745   8.7430   9.1579   9.6180  10.2618  10.7596  14.5613  14.6772
    15.1057  15.7298

          k = 0.0500 0.2500 0.4500 (  4839 PWs)   bands (ev):

   -45.1015 -21.5434 -21.4478 -21.3750  -6.0071  -5.4097  -5.2153  -4.2698
    -4.2496  -4.2143  -4.0815  -4.0353   3.7444   6.8653   7.6103   7.8517
     8.2810   8.7203   9.1312   9.5901  10.2989  10.7369  14.5686  14.9151
    15.3149  15.5249

          k = 0.0500 0.3500 0.3500 (  4836 PWs)   bands (ev):

   -45.1013 -21.5660 -21.4334 -21.3746  -5.9693  -5.3838  -5.2018  -4.2610
    -4.2427  -4.2186  -4.1118  -3.9756   3.6722   6.8951   7.3217   7.8451
     8.2692   8.6071   9.0325   9.5707  10.3506  10.7161  14.6261  14.9973
    15.3072  16.0736

          k = 0.0500 0.3500 0.4500 (  4827 PWs)   bands (ev):

   -45.1011 -21.5653 -21.4466 -21.3741  -5.9366  -5.3453  -5.1358  -4.2624
    -4.2482  -4.2215  -4.1197  -3.9370   3.5707   6.7932   7.1529   7.9146
     8.0747   8.7797   8.9325   9.4510  10.2127  10.7486  14.8797  14.9919
    15.4840  16.1237

          k = 0.0500 0.4500 0.4500 (  4821 PWs)   bands (ev):

   -45.1008 -21.5788 -21.4459 -21.3735  -5.9185  -5.2702  -5.0824  -4.2651
    -4.2476  -4.2239  -4.1430  -3.8795   3.4663   6.5904   7.0303   7.8839
     8.0500   8.6922   8.9960   9.3937   9.9065  10.9340  14.8591  15.2486
    15.5995  16.5239

          k = 0.1500 0.1500 0.1500 (  4842 PWs)   bands (ev):

   -45.1029 -21.5232 -21.3917 -21.3913  -6.4242  -5.5293  -5.4101  -4.2350
    -4.2239  -4.2028  -4.0726  -4.0614   4.5171   7.3833   7.4552   8.2027
     8.8240   8.9892   9.6081   9.9655  10.1496  10.2475  13.9754  14.2325
    14.2691  16.6681

          k = 0.1500 0.1500 0.2500 (  4842 PWs)   bands (ev):

   -45.1024 -21.5223 -21.4133 -21.3907  -6.2873  -5.4820  -5.3602  -4.2526
    -4.2257  -4.1996  -4.0913  -4.0473   4.2586   7.3377   7.4268   8.0077
     8.6109   8.8276   9.6496   9.9176  10.0666  10.4528  14.1916  14.3803
    14.5312  16.1578

          k = 0.1500 0.1500 0.3500 (  4844 PWs)   bands (ev):

   -45.1020 -21.5214 -21.4349 -21.3898  -6.1525  -5.4334  -5.3029  -4.2676
    -4.2172  -4.1946  -4.1178  -4.0403   4.0260   7.1355   7.4079   7.8216
     8.4363   8.8792   9.4034   9.9576  10.0774  10.7117  14.1292  14.7268
    14.8981  15.6229

          k = 0.1500 0.1500 0.4500 (  4853 PWs)   bands (ev):

   -45.1017 -21.5208 -21.4483 -21.3893  -6.0714  -5.4029  -5.2620  -4.2733
    -4.2100  -4.1891  -4.1365  -4.0420   3.8964   6.8749   7.3846   7.8542
     8.3663   8.9871   9.1436  10.0289  10.0638  10.8512  14.0562  14.9588
    15.1554  15.3667

          k = 0.1500 0.2500 0.2500 (  4844 PWs)   bands (ev):

   -45.1020 -21.5445 -21.4123 -21.3898  -6.1228  -5.4589  -5.3383  -4.2550
    -4.2366  -4.1863  -4.0605  -4.0441   4.0771   7.1618   7.2801   7.8261
     8.3169   8.6698   9.5566   9.9781  10.1869  10.5608  14.2449  14.5867
    14.7786  15.9553

          k = 0.1500 0.2500 0.3500 (  4837 PWs)   bands (ev):

   -45.1015 -21.5435 -21.4339 -21.3889  -6.0025  -5.4403  -5.2751  -4.2584
    -4.2242  -4.1766  -4.0635  -4.0222   3.9129   7.0431   7.2208   7.5366
     8.0157   8.7289   9.6277   9.7689  10.2815  10.5540  14.3816  14.7059
    15.0395  15.9154

          k = 0.1500 0.2500 0.4500 (  4841 PWs)   bands (ev):

   -45.1012 -21.5429 -21.4471 -21.3884  -5.9350  -5.4316  -5.2228  -4.2568
    -4.2126  -4.1756  -4.0551  -4.0211   3.8138   6.8618   7.1731   7.4222
     7.9409   8.8299   9.4338   9.8540  10.2740  10.4911  14.3969  14.8944
    15.2551  15.9435

          k = 0.1500 0.3500 0.3500 (  4837 PWs)   bands (ev):

   -45.1011 -21.5654 -21.4328 -21.3880  -5.8788  -5.4104  -5.2455  -4.2543
    -4.2168  -4.1542  -4.0701  -3.9593   3.7825   6.8303   7.1380   7.2918
     7.6859   8.7055   9.4874   9.8214  10.1715  10.6260  14.5230  14.8984
    15.2151  16.2424

          k = 0.1500 0.3500 0.4500 (  4835 PWs)   bands (ev):

   -45.1008 -21.5648 -21.4460 -21.3874  -5.8449  -5.3967  -5.1838  -4.2492
    -4.1946  -4.1603  -4.0734  -3.9209   3.7115   6.7642   7.0519   7.1873
     7.4805   8.7807   9.5041   9.6903   9.9279  10.7282  14.7795  14.8951
    15.3779  16.4693

          k = 0.1500 0.4500 0.4500 (  4825 PWs)   bands (ev):

   -45.1005 -21.5782 -21.4453 -21.3869  -5.8222  -5.3338  -5.1606  -4.2459
    -4.1734  -4.1392  -4.1034  -3.8618   3.6402   6.5555   6.9790   7.1839
     7.3101   8.7855   9.2877   9.5977   9.8235  10.9084  14.8455  15.1116
    15.4810  16.8169

          k = 0.2500 0.2500 0.2500 (  4842 PWs)   bands (ev):

   -45.1015 -21.5436 -21.4116 -21.4112  -6.0026  -5.4363  -5.3275  -4.2418
    -4.2374  -4.1536  -4.0367  -4.0149   4.0385   6.9333   7.0409   7.6674
     8.1080   8.2262   9.7862  10.2169  10.2870  10.3544  14.2342  14.7459
    14.7527  15.9908

          k = 0.2500 0.2500 0.3500 (  4841 PWs)   bands (ev):

   -45.1011 -21.5426 -21.4329 -21.4105  -5.9017  -5.4220  -5.2847  -4.2351
    -4.2177  -4.1151  -4.0191  -3.9950   3.9712   6.7887   6.8828   7.3077
     7.8345   8.1933   9.7179  10.1434  10.2613  10.5129  14.3128  14.8003
    15.0270  16.2072

          k = 0.2500 0.2500 0.4500 (  4829 PWs)   bands (ev):

   -45.1008 -21.5420 -21.4461 -21.4099  -5.8521  -5.4204  -5.2359  -4.2296
    -4.2035  -4.0773  -4.0133  -3.9926   3.9184   6.6840   6.8395   7.0129
     7.7758   8.2353   9.5016  10.1638  10.2110  10.5725  14.4428  14.8820
    15.2402  16.4581

          k = 0.2500 0.3500 0.3500 (  4833 PWs)   bands (ev):

   -45.1006 -21.5645 -21.4319 -21.4095  -5.7455  -5.4351  -5.3058  -4.2257
    -4.1954  -4.0709  -3.9918  -3.9280   3.9726   6.5247   6.7040   7.0843
     7.4925   8.0686   9.2557  10.2193  10.4301  10.6072  14.4802  14.9520
    15.1652  16.5618

          k = 0.2500 0.3500 0.4500 (  4825 PWs)   bands (ev):

   -45.1003 -21.5638 -21.4451 -21.4090  -5.7105  -5.4506  -5.2515  -4.2175
    -4.1749  -4.0434  -3.9810  -3.8900   3.9729   6.5212   6.5648   6.8714
     7.2944   8.0967   8.8933  10.2315  10.4175  10.7281  14.7507  14.9345
    15.3223  16.9102

          k = 0.2500 0.4500 0.4500 (  4833 PWs)   bands (ev):

   -45.1000 -21.5773 -21.4444 -21.4084  -5.6656  -5.4195  -5.2619  -4.2121
    -4.1523  -4.0205  -3.9641  -3.8281   3.9847   6.3314   6.5993   6.7154
     7.0851   8.0720   8.4126  10.2261  10.4640  10.8862  14.9107  15.0828
    15.4158  17.2574

          k = 0.3500 0.3500 0.3500 (  4848 PWs)   bands (ev):

   -45.1002 -21.5635 -21.4310 -21.4308  -5.6609  -5.4205  -5.3416  -4.1957
    -4.1807  -3.9911  -3.9174  -3.8883   4.1721   6.2411   6.3573   6.9568
     7.4589   7.5003   8.5891  10.5046  10.6027  10.7612  14.6615  15.1388
    15.1429  16.9493

          k = 0.3500 0.3500 0.4500 (  4819 PWs)   bands (ev):

   -45.0999 -21.5629 -21.4441 -21.4304  -5.6464  -5.4214  -5.3104  -4.1834
    -4.1667  -3.9345  -3.8881  -3.8528   4.2918   6.1365   6.1990   6.7794
     7.2582   7.4949   8.0800  10.5591  10.6830  10.8842  14.9179  15.0891
    15.3164  17.3397

          k = 0.3500 0.4500 0.4500 (  4813 PWs)   bands (ev):

   -45.0996 -21.5763 -21.4435 -21.4298  -5.5286  -5.4713  -5.3449  -4.1787
    -4.1472  -3.9032  -3.8356  -3.7868   4.4806   5.9615   6.1323   6.6139
     7.0608   7.3963   7.4790  10.6590  10.8601  10.8855  15.0992  15.2142
    15.3883  17.7154

          k = 0.4500 0.4500 0.4500 (  4800 PWs)   bands (ev):

   -45.0993 -21.5757 -21.4429 -21.4429  -5.5442  -5.4023  -5.3862  -4.1599
    -4.1428  -3.8329  -3.7624  -3.7562   5.0166   5.7701   5.8640   6.5308
     6.6023   7.0379   7.1581  10.8524  10.8652  11.0568  15.2893  15.3662
    15.3671  18.0851

          k =-0.0500 0.1500 0.0500 (  4845 PWs)   bands (ev):

   -45.1035 -21.5244 -21.3785 -21.3785  -6.5971  -5.5929  -5.4679  -4.2138
    -4.2056  -4.2023  -4.0815  -4.0483   4.9406   7.4629   7.4702   7.9000
     9.2157   9.2369   9.8136   9.8381  10.2907  10.3023  13.3913  14.1707
    14.1887  15.8351

          k =-0.0500 0.2500 0.0500 (  4839 PWs)   bands (ev):

   -45.1030 -21.5467 -21.3777 -21.3776  -6.4176  -5.5461  -5.4043  -4.2270
    -4.2151  -4.2124  -4.1460  -4.0392   4.4952   7.4658   7.5330   7.7848
     8.9785   8.9882   9.7638   9.9760  10.3541  10.4466  13.3934  14.5833
    14.6093  15.8390

          k =-0.0500 0.3500 0.0500 (  4837 PWs)   bands (ev):

   -45.1025 -21.5689 -21.3768 -21.3768  -6.2238  -5.5061  -5.3326  -4.2646
    -4.2259  -4.2114  -4.2025  -4.0324   4.1510   7.0943   7.6011   7.7641
     8.7662   8.7809   9.7025  10.2078  10.4098  10.9010  13.3943  14.9834
    15.0133  15.3375

          k =-0.0500 0.4500 0.0500 (  4849 PWs)   bands (ev):

   -45.1023 -21.5826 -21.3763 -21.3763  -6.0931  -5.4881  -5.2825  -4.3068
    -4.2320  -4.2242  -4.2107  -4.0294   3.9726   6.7600   7.6415   7.8300
     8.6270   8.6729   9.6625  10.2935  10.4466  11.4197  13.3918  14.5480
    15.2262  15.2638

          k = 0.1500 0.0500 0.1500 (  4852 PWs)   bands (ev):

   -45.1032 -21.5094 -21.3923 -21.3919  -6.5274  -5.5540  -5.4315  -4.2342
    -4.2045  -4.2015  -4.0877  -4.0537   4.7011   7.4246   7.6277   8.0537
     8.9989   9.1414   9.7168   9.8769  10.1104  10.2903  13.9484  14.0206
    14.0444  16.4016

          k =-0.0500 0.2500 0.1500 (  4839 PWs)   bands (ev):

   -45.1027 -21.5461 -21.3912 -21.3771  -6.3347  -5.5147  -5.3858  -4.2423
    -4.2226  -4.2124  -4.1067  -4.0555   4.3304   7.3374   7.5782   7.9693
     8.7141   8.9682   9.5626   9.9359  10.1312  10.5994  13.7297  14.5887
    14.6405  16.1760

          k = 0.2500 0.0500 0.1500 (  4839 PWs)   bands (ev):

   -45.1027 -21.5086 -21.4139 -21.3912  -6.3885  -5.4960  -5.3714  -4.2482
    -4.2162  -4.2016  -4.1210  -4.0498   4.3634   7.4210   7.6850   7.9677
     8.7975   8.9023   9.6240   9.8970  10.1117  10.4256  13.9926  14.3320
    14.4300  16.3490

          k =-0.0500 0.3500 0.1500 (  4849 PWs)   bands (ev):

   -45.1023 -21.5683 -21.3902 -21.3763  -6.1508  -5.4740  -5.3278  -4.2720
    -4.2234  -4.2194  -4.1380  -4.0486   4.0320   7.0292   7.5608   7.9018
     8.5203   8.7842   9.6580   9.9274  10.1937  10.9595  13.7206  14.9760
    15.0188  15.5268

          k = 0.3500 0.0500 0.1500 (  4849 PWs)   bands (ev):

   -45.1023 -21.5077 -21.4356 -21.3904  -6.2500  -5.4244  -5.3139  -4.2668
    -4.2240  -4.2010  -4.1619  -4.0429   4.0846   7.1661   7.6857   8.0268
     8.5502   8.8911   9.3220   9.9339  10.1596  10.7950  13.9704  14.7435
    14.8345  15.4581

          k =-0.0500 0.4500 0.1500 (  4848 PWs)   bands (ev):

   -45.1020 -21.5819 -21.3897 -21.3757  -6.0312  -5.4499  -5.2894  -4.2967
    -4.2289  -4.2203  -4.1487  -4.0486   3.8709   6.7257   7.5416   7.9744
     8.3979   8.6727   9.7553   9.9056  10.2334  11.2393  13.7049  14.9547
    15.2337  15.2860

          k = 0.4500 0.0500 0.1500 (  4848 PWs)   bands (ev):

   -45.1020 -21.5071 -21.4490 -21.3898  -6.1656  -5.3664  -5.2844  -4.2843
    -4.2291  -4.2005  -4.1812  -4.0417   3.9362   6.8745   7.7604   8.1317
     8.4924   8.7096   9.2220   9.9161  10.1993  11.1149  13.9219  14.9286
    15.0117  15.1056

          k = 0.2500 0.0500 0.2500 (  4846 PWs)   bands (ev):

   -45.1023 -21.5077 -21.4133 -21.4126  -6.2748  -5.4439  -5.3062  -4.2486
    -4.2187  -4.2098  -4.0898  -4.0784   4.1200   7.3603   7.6718   7.9168
     8.4558   8.6115   9.6137   9.8000  10.3043  10.5130  14.2475  14.3933
    14.7134  16.1298

          k =-0.0500 0.3500 0.2500 (  4848 PWs)   bands (ev):

   -45.1018 -21.5672 -21.4119 -21.3754  -6.0471  -5.4306  -5.2843  -4.2644
    -4.2354  -4.2188  -4.0915  -4.0411   3.8466   6.9573   7.5994   7.7820
     8.4285   8.6710   9.1676   9.8445  10.2200  10.8613  14.1941  14.9997
    15.1118  15.8295

          k = 0.3500 0.0500 0.2500 (  4848 PWs)   bands (ev):

   -45.1018 -21.5068 -21.4346 -21.4120  -6.1744  -5.3658  -5.2423  -4.2544
    -4.2224  -4.2120  -4.1018  -4.0676   3.8987   7.1671   7.5277   7.8663
     8.2974   8.6080   9.3002   9.8585  10.3652  10.7057  14.2728  14.7493
    15.0110  15.7765

          k =-0.0500 0.4500 0.2500 (  4839 PWs)   bands (ev):

   -45.1015 -21.5807 -21.4113 -21.3749  -5.9582  -5.3874  -5.2535  -4.2787
    -4.2347  -4.2268  -4.0866  -4.0340   3.7106   6.6752   7.5451   7.7766
     8.3595   8.6232   9.1925   9.8835  10.2093  10.9231  14.1809  15.2432
    15.2707  15.7103

          k = 0.4500 0.0500 0.2500 (  4839 PWs)   bands (ev):

   -45.1015 -21.5063 -21.4478 -21.4114  -6.1208  -5.2952  -5.2097  -4.2642
    -4.2269  -4.2146  -4.0916  -4.0719   3.7735   6.8867   7.5938   7.7294
     8.3460   8.7156   8.9954   9.9331  10.3163  10.8487  14.2482  15.0239
    15.2154  15.5540

          k = 0.3500 0.0500 0.3500 (  4836 PWs)   bands (ev):

   -45.1014 -21.5060 -21.4337 -21.4333  -6.1237  -5.2678  -5.1683  -4.2476
    -4.2279  -4.2123  -4.1165  -4.0243   3.7193   7.1321   7.2232   7.8026
     7.9811   8.6578   9.2835   9.6170  10.4413  10.7475  14.6326  14.7939
    15.2097  16.0483

          k =-0.0500 0.4500 0.3500 (  4827 PWs)   bands (ev):

   -45.1011 -21.5795 -21.4327 -21.3740  -5.9235  -5.3185  -5.1618  -4.2671
    -4.2435  -4.2248  -4.1220  -3.9360   3.5571   6.6305   7.2752   7.7641
     8.2859   8.5611   9.0022   9.5792  10.1744  10.8239  14.6153  15.2498
    15.4523  16.2895

          k = 0.4500 0.0500 0.3500 (  4827 PWs)   bands (ev):

   -45.1011 -21.5054 -21.4467 -21.4328  -6.1040  -5.1805  -5.1279  -4.2505
    -4.2270  -4.2202  -4.1267  -3.9911   3.6127   6.8646   7.2484   7.6612
     7.9489   8.8304   9.0626   9.6013  10.2688  10.9117  14.6930  15.0206
    15.3538  16.1357

          k = 0.4500 0.0500 0.4500 (  4821 PWs)   bands (ev):

   -45.1008 -21.5048 -21.4461 -21.4460  -6.1042  -5.0895  -5.0743  -4.2492
    -4.2257  -4.2214  -4.1545  -3.9391   3.5149   6.7484   7.1111   7.6905
     7.7097   8.9773   9.1031   9.3666  10.0417  11.0917  14.9984  15.0293
    15.4384  16.4759

          k =-0.1500 0.2500 0.1500 (  4842 PWs)   bands (ev):

   -45.1024 -21.5455 -21.3908 -21.3905  -6.2522  -5.4898  -5.3745  -4.2511
    -4.2333  -4.1985  -4.0792  -4.0561   4.2378   7.3008   7.3340   8.0225
     8.6487   8.8097   9.4467  10.0248  10.2081  10.4997  13.9431  14.5887
    14.6434  16.1873

          k =-0.1500 0.3500 0.1500 (  4844 PWs)   bands (ev):

   -45.1020 -21.5676 -21.3898 -21.3896  -6.0733  -5.4505  -5.3372  -4.2736
    -4.2292  -4.1855  -4.1033  -4.0494   3.9843   7.0338   7.2028   7.8721
     8.5455   8.7708   9.3185  10.0412  10.2599  10.8137  13.8749  14.9608
    14.9808  15.6859

          k =-0.1500 0.4500 0.1500 (  4853 PWs)   bands (ev):

   -45.1017 -21.5812 -21.3892 -21.3890  -5.9593  -5.4260  -5.3133  -4.2851
    -4.2266  -4.1701  -4.1217  -4.0523   3.8411   6.7310   7.1367   7.9131
     8.5047   8.7190   9.2947  10.0385  10.2914  10.9741  13.8130  15.1850
    15.1996  15.4707

          k = 0.2500 0.1500 0.2500 (  4844 PWs)   bands (ev):

   -45.1020 -21.5215 -21.4127 -21.4121  -6.1713  -5.4421  -5.3142  -4.2502
    -4.2322  -4.1853  -4.0679  -4.0496   4.0996   7.2036   7.3238   7.8172
     8.2452   8.6400   9.7659   9.9269  10.3217  10.3597  14.3021  14.5078
    14.6819  15.9598

          k =-0.1500 0.3500 0.2500 (  4837 PWs)   bands (ev):

   -45.1015 -21.5665 -21.4113 -21.3888  -5.9622  -5.4261  -5.3150  -4.2626
    -4.2319  -4.1643  -4.0624  -4.0256   3.8907   6.9193   7.1324   7.5609
     8.2040   8.6810   9.3341  10.0745  10.2726  10.6214  14.1727  14.9157
    15.0475  15.9540

          k = 0.3500 0.1500 0.2500 (  4837 PWs)   bands (ev):

   -45.1015 -21.5205 -21.4339 -21.4114  -6.0701  -5.3886  -5.2609  -4.2519
    -4.2231  -4.1646  -4.0686  -4.0438   3.9346   7.0764   7.2184   7.4808
     8.0718   8.6472   9.6085   9.9484  10.2937  10.5517  14.2728  14.7432
    14.9746  15.9184

          k =-0.1500 0.4500 0.2500 (  4841 PWs)   bands (ev):

   -45.1012 -21.5801 -21.4107 -21.3883  -5.8702  -5.3910  -5.3039  -4.2656
    -4.2268  -4.1456  -4.0671  -4.0189   3.7770   6.6775   6.9862   7.5398
     8.1986   8.7506   9.1633  10.1269  10.2628  10.6154  14.1508  15.1502
    15.2508  16.0406

          k = 0.4500 0.1500 0.2500 (  4841 PWs)   bands (ev):

   -45.1012 -21.5200 -21.4472 -21.4108  -6.0173  -5.3499  -5.2206  -4.2513
    -4.2150  -4.1470  -4.0686  -4.0488   3.8341   6.8795   7.1051   7.4158
     8.0480   8.7107   9.4183  10.0097  10.2103  10.6335  14.2557  14.9497
    15.2012  15.9480

          k = 0.3500 0.1500 0.3500 (  4837 PWs)   bands (ev):

   -45.1011 -21.5196 -21.4331 -21.4327  -6.0174  -5.3084  -5.2155  -4.2408
    -4.2145  -4.1415  -4.0626  -4.0075   3.8248   7.0273   7.0586   7.2267
     7.6497   8.6392   9.6867   9.8052  10.1024  10.7500  14.5129  14.8052
    15.1427  16.2198

          k =-0.1500 0.4500 0.3500 (  4835 PWs)   bands (ev):

   -45.1008 -21.5789 -21.4321 -21.3874  -5.8273  -5.3568  -5.2314  -4.2526
    -4.2068  -4.1315  -4.0890  -3.9194   3.6964   6.5961   7.0605   7.1839
     7.6606   8.7331   9.3083   9.8588   9.9808  10.7487  14.5652  15.1234
    15.3643  16.5453

          k = 0.4500 0.1500 0.3500 (  4835 PWs)   bands (ev):

   -45.1008 -21.5191 -21.4461 -21.4323  -5.9989  -5.2482  -5.1796  -4.2363
    -4.2000  -4.1281  -4.0737  -3.9758   3.7507   6.8513   7.0216   7.0911
     7.5347   8.6818   9.5456   9.8263   9.8986  10.8957  14.6353  14.9443
    15.3018  16.4672

          k = 0.4500 0.1500 0.4500 (  4825 PWs)   bands (ev):

   -45.1005 -21.5185 -21.4455 -21.4454  -6.0007  -5.1674  -5.1536  -4.2302
    -4.1736  -4.1152  -4.0993  -3.9235   3.6899   6.7367   6.9979   7.0594
     7.2096   8.7103   9.4175   9.7315   9.7473  11.0849  14.9182  14.9707
    15.3956  16.7864

          k =-0.2500 0.3500 0.2500 (  4841 PWs)   bands (ev):

   -45.1011 -21.5655 -21.4106 -21.4102  -5.8379  -5.4202  -5.3412  -4.2429
    -4.2200  -4.1113  -4.0171  -3.9882   3.9456   6.6751   6.9120   7.2614
     8.0545   8.1021   9.5486  10.2830  10.3511  10.4211  14.2409  14.9046
    15.0457  16.2214

          k =-0.2500 0.4500 0.2500 (  4829 PWs)   bands (ev):

   -45.1008 -21.5790 -21.4100 -21.4097  -5.7456  -5.3975  -5.3499  -4.2406
    -4.2092  -4.0638  -4.0244  -3.9744   3.8757   6.5260   6.7179   7.1417
     8.0382   8.1216   9.3276  10.2183  10.3803  10.4789  14.3121  15.0644
    15.2604  16.5144

          k = 0.3500 0.2500 0.3500 (  4833 PWs)   bands (ev):

   -45.1006 -21.5417 -21.4321 -21.4318  -5.8415  -5.3675  -5.2826  -4.2123
    -4.2032  -4.0568  -3.9736  -3.9705   4.0011   6.6114   6.6137   7.1203
     7.5271   7.9818   9.3018  10.2559  10.2957  10.7550  14.4772  14.9185
    15.1310  16.5523

          k =-0.2500 0.4500 0.3500 (  4825 PWs)   bands (ev):

   -45.1003 -21.5779 -21.4312 -21.4089  -5.6740  -5.4111  -5.3210  -4.2211
    -4.1786  -4.0333  -3.9862  -3.8863   3.9532   6.3439   6.7076   6.8053
     7.4338   8.0528   8.8730  10.2084  10.4685  10.7138  14.6351  15.0741
    15.3233  16.9296

          k = 0.4500 0.2500 0.3500 (  4825 PWs)   bands (ev):

   -45.1003 -21.5411 -21.4451 -21.4313  -5.8251  -5.3414  -5.2498  -4.2054
    -4.1852  -4.0076  -3.9738  -3.9400   4.0019   6.4619   6.6020   6.8548
     7.4110   7.9776   8.9342  10.2824  10.3022  10.8871  14.7010  14.9481
    15.2908  16.9032

          k = 0.4500 0.2500 0.4500 (  4833 PWs)   bands (ev):

   -45.1000 -21.5405 -21.4445 -21.4445  -5.8301  -5.2690  -5.2561  -4.1970
    -4.1648  -3.9706  -3.9592  -3.8926   4.0351   6.4336   6.4512   6.7294
     7.1554   7.9498   8.4940  10.3154  10.3193  11.0739  14.9440  15.0137
    15.3702  17.2383

          k =-0.3500 0.4500 0.3500 (  4819 PWs)   bands (ev):

   -45.0999 -21.5769 -21.4304 -21.4302  -5.5473  -5.4508  -5.3750  -4.1918
    -4.1609  -3.9537  -3.8798  -3.8376   4.2615   6.0360   6.3572   6.6833
     7.3158   7.4947   8.0685  10.5940  10.7333  10.7666  14.8651  15.1649
    15.3253  17.3411

          k = 0.4500 0.3500 0.4500 (  4813 PWs)   bands (ev):

   -45.0996 -21.5623 -21.4435 -21.4435  -5.6555  -5.3536  -5.3402  -4.1635
    -4.1616  -3.8648  -3.8326  -3.8307   4.5255   6.0034   6.0066   6.6601
     7.1558   7.3086   7.4825  10.6894  10.6981  11.0633  15.1216  15.1936
    15.3597  17.7108

     the Fermi energy is    11.2280 ev

!    total energy              =    -364.94531459 Ry
     Harris-Foulkes estimate   =    -364.94531460 Ry
     estimated scf accuracy    <          4.5E-09 Ry

     The total energy is the sum of the following terms:

     one-electron contribution =     -77.27459314 Ry
     hartree contribution      =      69.37383045 Ry
     xc contribution           =     -86.00046989 Ry
     ewald contribution        =    -271.04971480 Ry
     smearing contrib. (-TS)   =       0.00563279 Ry

     convergence has been achieved in  12 iterations

     Forces acting on atoms (cartesian axes, Ry/au):

     atom    1 type  1   force =     0.00000000    0.02085582    0.00000000
     atom    2 type  2   force =     0.00000000   -0.05907637    0.00000000
     atom    3 type  3   force =     0.00000000    0.00008874    0.00000000
     atom    4 type  3   force =     0.00000000    0.03804307    0.00000000
     atom    5 type  3   force =     0.00000000    0.00008874    0.00000000

     Total force =     0.073296     Total SCF correction =     0.000147


     Computing stress (Cartesian axis) and pressure

          total   stress  (Ry/bohr**3)                   (kbar)     P=  112.89
   0.00064477   0.00000000   0.00000000         94.85      0.00      0.00
   0.00000000   0.00101275   0.00000000          0.00    148.98      0.00
   0.00000000   0.00000000   0.00064477          0.00      0.00     94.85


     BFGS Geometry Optimization

     number of scf cycles    =   1
     number of bfgs steps    =   0

     enthalpy new            =    -364.9453145922 Ry

     new trust radius        =       0.1013144885 bohr
     new conv_thr            =       0.0000000100 Ry

     new unit-cell volume =    410.45100 a.u.^3 (    60.82256 Ang^3 )
     density =      8.27422 g/cm^3

CELL_PARAMETERS (alat=  7.37000000)
   1.000000000   0.000000000   0.000000000
   0.000000000   1.025318638   0.000000000
   0.000000000   0.000000000   1.000000000

ATOMIC_POSITIONS (crystal)
Pb       0.000000000   0.002829826   0.000000000
Ti       0.500000000   0.539984210   0.500000000
O        0.500000000   0.500012041   0.000000000
O        0.500000000   0.005161882   0.500000000
O        0.000000000   0.500012041   0.500000000



     Writing output data file PbTiO3.save/
     NEW-OLD atomic charge density approx. for the potential

     Check: negative core charge=   -0.000006
     extrapolated charge   45.06176, renormalised to   44.00000

     total cpu time spent up to now is      529.9 secs

     Self-consistent Calculation

     iteration #  1     ecut=    80.00 Ry     beta= 0.70
     Davidson diagonalization with overlap
     ethr =  1.00E-06,  avg # of iterations = 11.1

     total cpu time spent up to now is      619.7 secs

     total energy              =    -364.84873459 Ry
     Harris-Foulkes estimate   =    -363.29712235 Ry
     estimated scf accuracy    <       0.07877968 Ry

     iteration #  2     ecut=    80.00 Ry     beta= 0.70
     Davidson diagonalization with overlap
     ethr =  1.79E-04,  avg # of iterations =  5.7

     total cpu time spent up to now is      681.0 secs

     total energy              =    -364.89704990 Ry
     Harris-Foulkes estimate   =    -365.04964368 Ry
     estimated scf accuracy    <       0.47303425 Ry

     iteration #  3     ecut=    80.00 Ry     beta= 0.70
     Davidson diagonalization with overlap
     ethr =  1.79E-04,  avg # of iterations =  5.4

     total cpu time spent up to now is      720.7 secs

     total energy              =    -364.95414067 Ry
     Harris-Foulkes estimate   =    -364.97277700 Ry
     estimated scf accuracy    <       0.06616412 Ry

     iteration #  4     ecut=    80.00 Ry     beta= 0.70
     Davidson diagonalization with overlap
     ethr =  1.50E-04,  avg # of iterations =  1.9

     total cpu time spent up to now is      749.3 secs

     total energy              =    -364.95447817 Ry
     Harris-Foulkes estimate   =    -364.95897094 Ry
     estimated scf accuracy    <       0.01569090 Ry

     iteration #  5     ecut=    80.00 Ry     beta= 0.70
     Davidson diagonalization with overlap
     ethr =  3.57E-05,  avg # of iterations =  3.1

     total cpu time spent up to now is      780.4 secs

     total energy              =    -364.95460012 Ry
     Harris-Foulkes estimate   =    -364.95611195 Ry
     estimated scf accuracy    <       0.00622112 Ry

     iteration #  6     ecut=    80.00 Ry     beta= 0.70
     Davidson diagonalization with overlap
     ethr =  1.41E-05,  avg # of iterations =  2.2

     total cpu time spent up to now is      808.4 secs

     total energy              =    -364.95408452 Ry
     Harris-Foulkes estimate   =    -364.95492634 Ry
     estimated scf accuracy    <       0.00271780 Ry

     iteration #  7     ecut=    80.00 Ry     beta= 0.70
     Davidson diagonalization with overlap
     ethr =  6.18E-06,  avg # of iterations =  3.9

     total cpu time spent up to now is      839.0 secs

     total energy              =    -364.95414284 Ry
     Harris-Foulkes estimate   =    -364.95435441 Ry
     estimated scf accuracy    <       0.00048179 Ry

     iteration #  8     ecut=    80.00 Ry     beta= 0.70
     Davidson diagonalization with overlap
     ethr =  1.09E-06,  avg # of iterations =  4.2

     total cpu time spent up to now is      880.2 secs

     total energy              =    -364.95428478 Ry
     Harris-Foulkes estimate   =    -364.95428650 Ry
     estimated scf accuracy    <       0.00001990 Ry

     iteration #  9     ecut=    80.00 Ry     beta= 0.70
     Davidson diagonalization with overlap
     ethr =  4.52E-08,  avg # of iterations =  1.7

     total cpu time spent up to now is      909.0 secs

     total energy              =    -364.95427988 Ry
     Harris-Foulkes estimate   =    -364.95428583 Ry
     estimated scf accuracy    <       0.00001748 Ry

     iteration # 10     ecut=    80.00 Ry     beta= 0.70
     Davidson diagonalization with overlap
     ethr =  3.97E-08,  avg # of iterations =  3.0

     total cpu time spent up to now is      942.2 secs

     total energy              =    -364.95427989 Ry
     Harris-Foulkes estimate   =    -364.95428281 Ry
     estimated scf accuracy    <       0.00000610 Ry

     iteration # 11     ecut=    80.00 Ry     beta= 0.70
     Davidson diagonalization with overlap
     ethr =  1.39E-08,  avg # of iterations =  3.1

     total cpu time spent up to now is      980.4 secs

     total energy              =    -364.95428112 Ry
     Harris-Foulkes estimate   =    -364.95428119 Ry
     estimated scf accuracy    <       0.00000019 Ry

     iteration # 12     ecut=    80.00 Ry     beta= 0.70
     Davidson diagonalization with overlap
     ethr =  4.24E-10,  avg # of iterations =  3.1

     total cpu time spent up to now is     1024.9 secs

     total energy              =    -364.95428125 Ry
     Harris-Foulkes estimate   =    -364.95428126 Ry
     estimated scf accuracy    <       0.00000002 Ry

     iteration # 13     ecut=    80.00 Ry     beta= 0.70
     Davidson diagonalization with overlap
     ethr =  5.30E-11,  avg # of iterations =  2.8

     total cpu time spent up to now is     1055.8 secs

     End of self-consistent calculation

          k = 0.0500 0.0488 0.0500 (  4855 PWs)   bands (ev):

   -45.7004 -21.9967 -21.9653 -21.9653  -6.9752  -5.9127  -5.8778  -4.6249
    -4.6247  -4.6242  -4.5047  -4.4531   4.8848   7.0667   7.1696   7.3053
     9.2005   9.2577   9.4574   9.6940   9.8917   9.9166  12.8801  13.1793
    13.1808  15.2591

          k = 0.0500 0.0488 0.1500 (  4845 PWs)   bands (ev):

   -45.7001 -21.9963 -21.9785 -21.9648  -6.8815  -5.8763  -5.8428  -4.6351
    -4.6327  -4.6240  -4.5162  -4.4707   4.5617   7.1132   7.2234   7.5090
     8.9776   9.1583   9.4582   9.5544   9.7266   9.9012  13.1803  13.2315
    13.3516  15.2445

          k = 0.0500 0.0488 0.2500 (  4839 PWs)   bands (ev):

   -45.6997 -22.0002 -21.9950 -21.9640  -6.7251  -5.8139  -5.7849  -4.6532
    -4.6450  -4.6230  -4.5684  -4.4699   4.1660   7.1389   7.3114   7.4693
     8.8073   8.8871   9.3995   9.4947   9.6963   9.9749  13.1867  13.7253
    13.7603  15.2404

          k = 0.0500 0.0488 0.3500 (  4837 PWs)   bands (ev):

   -45.6992 -22.0210 -21.9945 -21.9632  -6.5618  -5.7451  -5.7264  -4.6795
    -4.6559  -4.6278  -4.6218  -4.4631   3.8607   6.7491   7.4683   7.6161
     8.4947   8.5756   9.3427   9.4817   9.8136  10.3997  13.1890  14.1808
    14.2118  14.7372

          k = 0.0500 0.0488 0.4500 (  4849 PWs)   bands (ev):

   -45.6989 -22.0339 -21.9940 -21.9627  -6.4567  -5.6975  -5.6910  -4.7112
    -4.6621  -4.6545  -4.6212  -4.4593   3.7047   6.4275   7.6371   7.8461
     8.2116   8.2785   9.2958   9.5185   9.8623  10.8892  13.1837  13.9643
    14.4553  14.5033

          k = 0.0500 0.1463 0.1500 (  4852 PWs)   bands (ev):

   -45.6999 -22.0061 -21.9781 -21.9644  -6.7990  -5.8531  -5.8173  -4.6462
    -4.6336  -4.6298  -4.5267  -4.4721   4.3153   7.0937   7.2757   7.6716
     8.7317   8.9857   9.3527   9.5619   9.6888   9.9430  13.2261  13.4418
    13.5718  15.5140

          k = 0.0500 0.1463 0.2500 (  4839 PWs)   bands (ev):

   -45.6995 -22.0055 -21.9991 -21.9636  -6.6492  -5.8000  -5.7606  -4.6642
    -4.6438  -4.6296  -4.5393  -4.4849   3.9983   7.0419   7.3610   7.5769
     8.5480   8.7665   9.2192   9.4965   9.6153  10.1226  13.4379  13.7300
    13.9148  15.5464

          k = 0.0500 0.1463 0.3500 (  4849 PWs)   bands (ev):

   -45.6990 -22.0205 -22.0043 -21.9628  -6.4971  -5.7453  -5.6964  -4.6861
    -4.6516  -4.6291  -4.5733  -4.4802   3.7349   6.7340   7.4026   7.6551
     8.2674   8.5676   9.1670   9.5182   9.5947  10.4435  13.4351  14.1806
    14.3137  14.9056

          k = 0.0500 0.1463 0.4500 (  4848 PWs)   bands (ev):

   -45.6988 -22.0334 -22.0038 -21.9624  -6.4026  -5.7070  -5.6548  -4.7042
    -4.6587  -4.6287  -4.5897  -4.4783   3.5947   6.4322   7.5047   7.7985
     8.1050   8.2944   9.2162   9.5450   9.5837  10.7093  13.4202  14.3601
    14.4509  14.5813

          k = 0.0500 0.2438 0.2500 (  4846 PWs)   bands (ev):

   -45.6992 -22.0212 -21.9986 -21.9631  -6.5275  -5.7774  -5.7139  -4.6718
    -4.6462  -4.6360  -4.5157  -4.4988   3.7518   6.9703   7.3689   7.5337
     8.3404   8.4739   8.9903   9.4243   9.8220  10.2402  13.7045  13.8404
    14.1712  15.5533

          k = 0.0500 0.2438 0.3500 (  4848 PWs)   bands (ev):

   -45.6987 -22.0210 -22.0188 -21.9622  -6.4038  -5.7302  -5.6405  -4.6814
    -4.6513  -4.6376  -4.5190  -4.4927   3.5407   6.7171   7.2483   7.5961
     8.1209   8.4140   8.8522   9.3093   9.9008  10.3454  13.8144  14.1689
    14.4816  15.1972

          k = 0.0500 0.2438 0.4500 (  4839 PWs)   bands (ev):

   -45.6985 -22.0326 -22.0195 -21.9617  -6.3355  -5.6892  -5.5915  -4.6915
    -4.6573  -4.6392  -4.5157  -4.4899   3.4223   6.4370   7.3082   7.5356
     8.0854   8.3587   8.7801   9.3239   9.8825  10.4072  13.8064  14.4301
    14.7018  14.9588

          k = 0.0500 0.3414 0.3500 (  4836 PWs)   bands (ev):

   -45.6984 -22.0359 -22.0188 -21.9616  -6.3317  -5.6788  -5.5849  -4.6796
    -4.6542  -4.6407  -4.5408  -4.4370   3.3583   6.6579   6.9383   7.6221
     7.9616   8.3206   8.7455   9.1924  10.0354  10.2626  14.1291  14.2106
    14.6546  15.5189

          k = 0.0500 0.3414 0.4500 (  4827 PWs)   bands (ev):

   -45.6982 -22.0353 -22.0317 -21.9611  -6.2989  -5.6254  -5.5234  -4.6836
    -4.6562  -4.6448  -4.5518  -4.4047   3.2569   6.4214   6.8948   7.6005
     7.8776   8.4411   8.6082   9.1241   9.8418  10.3892  14.1872  14.4096
    14.8401  15.5276

          k = 0.0500 0.4389 0.4500 (  4821 PWs)   bands (ev):

   -45.6980 -22.0448 -22.0313 -21.9608  -6.2905  -5.5636  -5.4787  -4.6838
    -4.6552  -4.6458  -4.5763  -4.3548   3.1581   6.3546   6.6930   7.6706
     7.7175   8.4640   8.6260   9.0193   9.5889  10.5479  14.3925  14.4227
    14.9366  15.9096

          k = 0.1500 0.1463 0.1500 (  4842 PWs)   bands (ev):

   -45.6997 -22.0056 -21.9777 -21.9774  -6.7093  -5.8271  -5.7899  -4.6503
    -4.6485  -4.6279  -4.5148  -4.4789   4.1596   7.0863   7.1345   7.7995
     8.5313   8.7120   9.3816   9.6057   9.7612   9.8402  13.4642  13.5653
    13.5848  15.9714

          k = 0.1500 0.1463 0.2500 (  4842 PWs)   bands (ev):

   -45.6992 -22.0050 -21.9985 -21.9767  -6.5637  -5.7878  -5.7382  -4.6700
    -4.6480  -4.6239  -4.5160  -4.4817   3.9212   7.0148   7.1064   7.6270
     8.3027   8.4696   9.3137   9.5882   9.7536  10.0442  13.5331  13.8488
    13.9267  15.6283

          k = 0.1500 0.1463 0.3500 (  4844 PWs)   bands (ev):

   -45.6988 -22.0199 -22.0038 -21.9759  -6.4192  -5.7502  -5.6765  -4.6856
    -4.6408  -4.6152  -4.5391  -4.4780   3.7047   6.7343   7.0933   7.4984
     8.1017   8.5145   9.0014   9.6619   9.7656  10.3016  13.4740  14.2175
    14.3182  15.0833

          k = 0.1500 0.1463 0.4500 (  4853 PWs)   bands (ev):

   -45.6985 -22.0328 -22.0033 -21.9754  -6.3319  -5.7269  -5.6323  -4.6918
    -4.6362  -4.6038  -4.5589  -4.4801   3.5837   6.4395   7.0730   7.5577
     8.0124   8.5919   8.7802   9.7137   9.7531  10.4304  13.4128  14.4622
    14.5775  14.8238

          k = 0.1500 0.2438 0.2500 (  4844 PWs)   bands (ev):

   -45.6989 -22.0206 -21.9980 -21.9761  -6.4398  -5.7674  -5.7172  -4.6740
    -4.6542  -4.6093  -4.4965  -4.4765   3.7479   6.8990   7.0175   7.4616
     7.9867   8.3038   9.3777   9.5618   9.8642  10.0746  13.7287  13.9054
    14.1229  15.4341

          k = 0.1500 0.2438 0.3500 (  4837 PWs)   bands (ev):

   -45.6985 -22.0205 -22.0182 -21.9753  -6.3161  -5.7478  -5.6504  -4.6780
    -4.6448  -4.5916  -4.4876  -4.4762   3.5930   6.6921   6.9442   7.2048
     7.7507   8.3289   9.2241   9.5357   9.9389  10.1261  13.7277  14.1765
    14.4212  15.3542

          k = 0.1500 0.2438 0.4500 (  4841 PWs)   bands (ev):

   -45.6982 -22.0320 -22.0190 -21.9748  -6.2488  -5.7331  -5.5987  -4.6779
    -4.6367  -4.5765  -4.4919  -4.4747   3.4996   6.4388   6.8723   7.1578
     7.6989   8.4256   9.0037   9.6046   9.8985  10.1298  13.7026  14.4092
    14.6494  15.3703

          k = 0.1500 0.3414 0.3500 (  4837 PWs)   bands (ev):

   -45.6982 -22.0354 -22.0183 -21.9747  -6.2356  -5.7132  -5.6248  -4.6726
    -4.6362  -4.5744  -4.4964  -4.4208   3.4701   6.6137   6.8313   6.9874
     7.3713   8.2963   9.2889   9.4371   9.7845  10.2464  13.9850  14.2079
    14.5629  15.6708

          k = 0.1500 0.3414 0.4500 (  4835 PWs)   bands (ev):

   -45.6979 -22.0347 -22.0312 -21.9742  -6.2018  -5.6897  -5.5657  -4.6692
    -4.6206  -4.5620  -4.5101  -4.3888   3.4004   6.4160   6.7856   6.8782
     7.2642   8.3536   9.1228   9.4562   9.5714  10.3618  14.0640  14.3776
    14.7454  15.8733

          k = 0.1500 0.4389 0.4500 (  4825 PWs)   bands (ev):

   -45.6977 -22.0443 -22.0307 -21.9738  -6.1918  -5.6373  -5.5465  -4.6654
    -4.5962  -4.5521  -4.5344  -4.3380   3.3332   6.3418   6.6423   6.9323
     7.0022   8.3534   8.9851   9.3762   9.4423  10.5397  14.3059  14.3782
    14.8266  16.2149

          k = 0.2500 0.2438 0.2500 (  4842 PWs)   bands (ev):

   -45.6985 -22.0198 -21.9973 -21.9970  -6.3057  -5.7541  -5.7086  -4.6603
    -4.6582  -4.5778  -4.4694  -4.4479   3.7194   6.7188   6.7368   7.3474
     7.6963   7.8400   9.5645   9.8150   9.8181  10.0166  13.7170  14.0979
    14.1448  15.4359

          k = 0.2500 0.2438 0.3500 (  4841 PWs)   bands (ev):

   -45.6980 -22.0196 -22.0173 -21.9962  -6.1904  -5.7563  -5.6609  -4.6562
    -4.6393  -4.5386  -4.4509  -4.4273   3.6645   6.5158   6.6179   6.9341
     7.4962   7.7907   9.3001   9.8223   9.8806  10.1467  13.7548  14.2259
    14.4350  15.6403

          k = 0.2500 0.2438 0.4500 (  4829 PWs)   bands (ev):

   -45.6977 -22.0310 -22.0182 -21.9957  -6.1337  -5.7617  -5.6103  -4.6519
    -4.6266  -4.4954  -4.4543  -4.4194   3.6203   6.3924   6.4611   6.7445
     7.4611   7.8394   9.0280   9.8275   9.8627  10.1999  13.8223  14.3820
    14.6564  15.8977

          k = 0.2500 0.3414 0.3500 (  4833 PWs)   bands (ev):

   -45.6977 -22.0345 -22.0174 -21.9956  -6.0870  -5.7545  -5.6801  -4.6446
    -4.6218  -4.4909  -4.4184  -4.3878   3.6635   6.3392   6.4185   6.7823
     7.1337   7.6271   8.9109   9.9204  10.0408  10.2606  13.9332  14.3140
    14.5155  15.9843

          k = 0.2500 0.3414 0.4500 (  4825 PWs)   bands (ev):

   -45.6974 -22.0339 -22.0302 -21.9951  -6.0503  -5.7676  -5.6256  -4.6385
    -4.6039  -4.4470  -4.4190  -4.3548   3.6674   6.2493   6.3571   6.4708
     7.0474   7.6512   8.5124   9.9577  10.0313  10.3629  14.0910  14.4010
    14.7002  16.3306

          k = 0.2500 0.4389 0.4500 (  4833 PWs)   bands (ev):

   -45.6973 -22.0434 -22.0298 -21.9947  -6.0305  -5.7339  -5.6358  -4.6328
    -4.5854  -4.4220  -4.4043  -4.3052   3.6796   6.1880   6.2718   6.3973
     6.7731   7.6238   8.0943   9.9762  10.0809  10.5286  14.3134  14.4371
    14.7573  16.6676

          k = 0.3500 0.3414 0.3500 (  4848 PWs)   bands (ev):

   -45.6973 -22.0336 -22.0165 -22.0164  -5.9755  -5.7662  -5.7121  -4.6133
    -4.6127  -4.4158  -4.3554  -4.3342   3.8684   6.0570   6.0801   6.6393
     7.0236   7.1408   8.2095  10.1798  10.2338  10.3935  14.1077  14.4896
    14.5517  16.3743

          k = 0.3500 0.3414 0.4500 (  4819 PWs)   bands (ev):

   -45.6970 -22.0330 -22.0293 -22.0159  -5.9499  -5.7779  -5.6781  -4.6084
    -4.5933  -4.3621  -4.3357  -4.2885   3.9937   5.8858   6.0067   6.3839
     6.8935   7.1368   7.6764  10.2239  10.2993  10.5118  14.3096  14.5144
    14.7286  16.7725

          k = 0.3500 0.4389 0.4500 (  4813 PWs)   bands (ev):

   -45.6968 -22.0425 -22.0289 -22.0155  -5.8747  -5.8071  -5.7099  -4.5998
    -4.5820  -4.3089  -4.2836  -4.2605   4.1766   5.7912   5.8318   6.3003
     6.7462   6.9804   7.1241  10.3506  10.4864  10.5258  14.4878  14.6145
    14.7329  17.1353

          k = 0.4500 0.4389 0.4500 (  4800 PWs)   bands (ev):

   -45.6965 -22.0419 -22.0284 -22.0284  -5.8667  -5.7625  -5.7467  -4.5809
    -4.5788  -4.2438  -4.2362  -4.2045   4.7061   5.5970   5.6012   6.1764
     6.2632   6.6643   6.7984  10.5046  10.5123  10.6782  14.6660  14.7059
    14.8096  17.5088

          k =-0.0500 0.1463 0.0500 (  4845 PWs)   bands (ev):

   -45.7002 -22.0066 -21.9650 -21.9649  -6.8901  -5.8874  -5.8475  -4.6340
    -4.6310  -4.6238  -4.5370  -4.4514   4.5469   7.1613   7.2256   7.4895
     8.9953   9.0579   9.4547   9.5315   9.9050   9.9162  12.8807  13.4315
    13.4421  15.2599

          k =-0.0500 0.2438 0.0500 (  4839 PWs)   bands (ev):

   -45.6999 -22.0226 -21.9644 -21.9643  -6.7459  -5.8489  -5.7947  -4.6524
    -4.6404  -4.6229  -4.5894  -4.4504   4.1428   7.1785   7.3250   7.4941
     8.7211   8.7799   9.4121   9.5873   9.9595  10.0201  12.8817  13.8180
    13.8358  15.2612

          k =-0.0500 0.3414 0.0500 (  4837 PWs)   bands (ev):

   -45.6996 -22.0385 -21.9638 -21.9638  -6.5913  -5.8158  -5.7362  -4.6867
    -4.6487  -4.6315  -4.6221  -4.4519   3.8332   6.8606   7.4433   7.5687
     8.4658   8.5010   9.3585   9.8033  10.0067  10.3848  12.8817  14.1875
    14.2080  15.2626

          k =-0.0500 0.4389 0.0500 (  4849 PWs)   bands (ev):

   -45.6994 -22.0483 -21.9635 -21.9634  -6.4884  -5.7997  -5.6961  -4.7223
    -4.6533  -4.6470  -4.6216  -4.4543   3.6737   6.5731   7.5360   7.7022
     8.2903   8.3006   9.3237   9.8868  10.0379  10.8340  12.8791  14.1474
    14.4107  14.4342

          k = 0.1500 0.0488 0.1500 (  4852 PWs)   bands (ev):

   -45.6998 -21.9958 -21.9781 -21.9778  -6.7904  -5.8489  -5.8071  -4.6452
    -4.6344  -4.6310  -4.5091  -4.4879   4.3364   7.1510   7.1767   7.6721
     8.7552   8.8524   9.4700   9.4769   9.7300   9.9500  13.3192  13.3757
    13.5002  15.4710

          k =-0.0500 0.2438 0.1500 (  4839 PWs)   bands (ev):

   -45.6996 -22.0221 -21.9775 -21.9639  -6.6610  -5.8174  -5.7727  -4.6658
    -4.6397  -4.6314  -4.5533  -4.4694   3.9863   7.0646   7.3503   7.6190
     8.4570   8.7548   9.2101   9.6098   9.7293  10.1266  13.2242  13.8277
    13.9181  15.5880

          k = 0.2500 0.0488 0.1500 (  4839 PWs)   bands (ev):

   -45.6994 -21.9996 -21.9945 -21.9771  -6.6408  -5.8011  -5.7478  -4.6620
    -4.6434  -4.6315  -4.5364  -4.4837   4.0256   7.0908   7.2768   7.5759
     8.4836   8.6147   9.2215   9.5789   9.7478  10.1077  13.3424  13.7486
    13.9125  15.5077

          k =-0.0500 0.3414 0.1500 (  4849 PWs)   bands (ev):

   -45.6993 -22.0379 -21.9769 -21.9633  -6.5163  -5.7821  -5.7257  -4.6912
    -4.6456  -4.6313  -4.5765  -4.4701   3.7156   6.8257   7.3702   7.6172
     8.2358   8.5282   9.2736   9.6107   9.7861  10.4228  13.2157  14.1954
    14.2537  15.0564

          k = 0.3500 0.0488 0.1500 (  4849 PWs)   bands (ev):

   -45.6989 -22.0203 -21.9940 -21.9762  -6.4892  -5.7455  -5.6877  -4.6830
    -4.6512  -4.6309  -4.5676  -4.4775   3.7657   6.7497   7.3649   7.6270
     8.1894   8.5305   9.0055   9.6354   9.7653  10.4265  13.3331  14.1906
    14.3146  14.9210

          k =-0.0500 0.4389 0.1500 (  4848 PWs)   bands (ev):

   -45.6991 -22.0477 -21.9765 -21.9629  -6.4231  -5.7594  -5.6963  -4.7118
    -4.6506  -4.6312  -4.5839  -4.4743   3.5709   6.5629   7.3935   7.7242
     8.1162   8.3384   9.3626   9.5976   9.8222  10.6660  13.2018  14.4095
    14.4314  14.6063

          k = 0.4500 0.0488 0.1500 (  4848 PWs)   bands (ev):

   -45.6987 -22.0332 -21.9936 -21.9757  -6.3954  -5.7036  -5.6520  -4.7000
    -4.6590  -4.6304  -4.5784  -4.4779   3.6269   6.4368   7.4453   7.8008
     8.0548   8.2637   9.0109   9.6280   9.7980  10.6793  13.3111  14.4051
    14.4809  14.5670

          k = 0.2500 0.0488 0.2500 (  4846 PWs)   bands (ev):

   -45.6989 -21.9993 -21.9980 -21.9934  -6.5097  -5.7697  -5.6855  -4.6638
    -4.6474  -4.6378  -4.5225  -4.4833   3.8099   7.0254   7.2768   7.5087
     8.2119   8.2262   9.1243   9.4211   9.9602  10.2098  13.6657  13.8077
    14.2038  15.4805

          k =-0.0500 0.3414 0.2500 (  4848 PWs)   bands (ev):

   -45.6989 -22.0369 -21.9979 -21.9625  -6.4104  -5.7392  -5.6690  -4.6828
    -4.6483  -4.6402  -4.5224  -4.4853   3.5320   6.7786   7.2338   7.5462
     8.1187   8.4306   8.8399   9.4414   9.9467  10.3159  13.6992  14.2001
    14.4233  15.3300

          k = 0.3500 0.0488 0.2500 (  4848 PWs)   bands (ev):

   -45.6985 -22.0193 -21.9977 -21.9928  -6.3909  -5.7162  -5.6219  -4.6721
    -4.6499  -4.6409  -4.5287  -4.4645   3.6110   6.7551   7.1890   7.5034
     7.9747   8.2484   8.8395   9.4258  10.0382  10.3029  13.7092  14.1918
    14.5035  15.2145

          k =-0.0500 0.4389 0.2500 (  4839 PWs)   bands (ev):

   -45.6987 -22.0466 -21.9975 -21.9621  -6.3430  -5.6958  -5.6506  -4.6941
    -4.6494  -4.6445  -4.5153  -4.4848   3.4082   6.5408   7.2250   7.5199
     8.0844   8.3600   8.8245   9.4730   9.9640  10.3577  13.6881  14.4246
    14.5753  15.1970

          k = 0.4500 0.0488 0.2500 (  4839 PWs)   bands (ev):

   -45.6982 -22.0322 -21.9972 -21.9923  -6.3274  -5.6648  -5.5846  -4.6803
    -4.6568  -4.6434  -4.5168  -4.4619   3.4978   6.4497   7.2605   7.4036
     8.0157   8.2830   8.6123   9.4826   9.9822  10.3683  13.7018  14.4796
    14.7026  15.0424

          k = 0.3500 0.0488 0.3500 (  4836 PWs)   bands (ev):

   -45.6981 -22.0186 -22.0181 -21.9922  -6.3248  -5.6404  -5.5525  -4.6672
    -4.6557  -4.6393  -4.5475  -4.4016   3.4585   6.7334   6.8029   7.4949
     7.7611   8.2027   8.7892   9.1756   9.9692  10.3808  14.1053  14.2377
    14.7076  15.4814

          k =-0.0500 0.4389 0.3500 (  4827 PWs)   bands (ev):

   -45.6982 -22.0455 -22.0184 -21.9613  -6.3003  -5.6194  -5.5570  -4.6835
    -4.6537  -4.6461  -4.5526  -4.4029   3.2514   6.4874   6.8528   7.5682
     7.9225   8.3614   8.6664   9.1750   9.8680  10.3831  14.1355  14.4237
    14.7771  15.7452

          k = 0.4500 0.0488 0.3500 (  4827 PWs)   bands (ev):

   -45.6978 -22.0311 -22.0177 -21.9918  -6.3009  -5.5651  -5.5111  -4.6685
    -4.6560  -4.6477  -4.5529  -4.3635   3.3668   6.4399   6.8150   7.4089
     7.7284   8.3632   8.5875   9.1418   9.7198  10.5273  14.1628  14.4794
    14.8528  15.5939

          k = 0.4500 0.0488 0.4500 (  4821 PWs)   bands (ev):

   -45.6975 -22.0305 -22.0305 -21.9913  -6.3010  -5.4773  -5.4625  -4.6671
    -4.6551  -4.6501  -4.5742  -4.3064   3.2857   6.3360   6.6293   7.4813
     7.5149   8.4976   8.6110   8.9180   9.3921  10.7075  14.4654  14.4889
    14.9444  15.7447

          k =-0.1500 0.2438 0.1500 (  4842 PWs)   bands (ev):

   -45.6993 -22.0215 -21.9771 -21.9768  -6.5748  -5.7919  -5.7614  -4.6724
    -4.6479  -4.6226  -4.5283  -4.4701   3.8991   7.0382   7.0959   7.6552
     8.3023   8.5595   9.2125   9.6915   9.8144   9.9981  13.4417  13.8835
    13.9205  15.6921

          k =-0.1500 0.3414 0.1500 (  4844 PWs)   bands (ev):

   -45.6990 -22.0373 -21.9765 -21.9763  -6.4359  -5.7565  -5.7319  -4.6907
    -4.6430  -4.6127  -4.5468  -4.4696   3.6683   6.8290   7.0416   7.5027
     8.1527   8.5831   9.0100   9.7230   9.8627  10.2700  13.3789  14.2147
    14.2360  15.2073

          k =-0.1500 0.4389 0.1500 (  4853 PWs)   bands (ev):

   -45.6989 -22.0470 -21.9761 -21.9759  -6.3480  -5.7343  -5.7130  -4.7001
    -4.6396  -4.6010  -4.5607  -4.4755   3.5397   6.5710   7.0005   7.5400
     8.0864   8.5928   8.9190   9.7288   9.8907  10.4237  13.3203  14.4261
    14.4325  14.9873

          k = 0.2500 0.1463 0.2500 (  4844 PWs)   bands (ev):

   -45.6988 -22.0044 -21.9976 -21.9976  -6.4311  -5.7655  -5.6943  -4.6683
    -4.6554  -4.6103  -4.4991  -4.4685   3.7834   6.9232   6.9732   7.4487
     7.9056   8.2373   9.4117   9.4951   9.9779  10.0303  13.7262  13.9016
    14.1494  15.4037

          k =-0.1500 0.3414 0.2500 (  4837 PWs)   bands (ev):

   -45.6986 -22.0363 -21.9974 -21.9755  -6.3207  -5.7389  -5.6944  -4.6793
    -4.6484  -4.5921  -4.4943  -4.4669   3.5763   6.7432   6.9284   7.1894
     7.8107   8.3148   9.1802   9.6753   9.9589  10.1029  13.6871  14.1776
    14.3539  15.4300

          k = 0.3500 0.1463 0.2500 (  4837 PWs)   bands (ev):

   -45.6983 -22.0189 -22.0032 -21.9967  -6.3124  -5.7341  -5.6390  -4.6714
    -4.6464  -4.5935  -4.5001  -4.4507   3.6382   6.7155   6.8960   7.1534
     7.7162   8.2534   9.1563   9.5625   9.9756  10.1529  13.7049  14.1945
    14.4354  15.3674

          k =-0.1500 0.4389 0.2500 (  4841 PWs)   bands (ev):

   -45.6984 -22.0460 -21.9970 -21.9751  -6.2524  -5.7076  -5.6861  -4.6812
    -4.6426  -4.5793  -4.4899  -4.4694   3.4736   6.5421   6.8151   7.1562
     7.7776   8.3729   9.0290   9.7402   9.9296  10.1288  13.6626  14.3793
    14.5232  15.5383

          k = 0.4500 0.1463 0.2500 (  4841 PWs)   bands (ev):

   -45.6980 -22.0317 -22.0027 -21.9961  -6.2501  -5.7100  -5.5951  -4.6705
    -4.6391  -4.5840  -4.4941  -4.4491   3.5492   6.4478   6.8115   7.1205
     7.6836   8.3512   8.9278   9.6301   9.8654  10.2105  13.6860  14.4380
    14.6532  15.4196

          k = 0.3500 0.1463 0.3500 (  4837 PWs)   bands (ev):

   -45.6979 -22.0182 -22.0177 -22.0019  -6.2421  -5.6760  -5.5959  -4.6620
    -4.6362  -4.5758  -4.5063  -4.3875   3.5532   6.6962   6.7014   6.8922
     7.2966   8.2431   9.2048   9.3691   9.7059  10.3831  14.0025  14.2424
    14.6173  15.6780

          k =-0.1500 0.4389 0.3500 (  4835 PWs)   bands (ev):

   -45.6980 -22.0450 -22.0179 -21.9743  -6.2017  -5.6644  -5.6166  -4.6703
    -4.6244  -4.5639  -4.5073  -4.3871   3.3908   6.4594   6.7857   6.8648
     7.2803   8.3177   9.1487   9.4831   9.5961  10.3779  14.0754  14.3447
    14.6820  15.9912

          k = 0.4500 0.1463 0.3500 (  4835 PWs)   bands (ev):

   -45.6976 -22.0307 -22.0173 -22.0015  -6.2188  -5.6257  -5.5580  -4.6572
    -4.6217  -4.5682  -4.5133  -4.3492   3.4938   6.4323   6.7199   6.7791
     7.1927   8.3029   9.0066   9.3869   9.4794  10.5187  14.1039  14.4214
    14.7766  15.9498

          k = 0.4500 0.1463 0.4500 (  4825 PWs)   bands (ev):

   -45.6973 -22.0301 -22.0301 -22.0010  -6.2201  -5.5475  -5.5341  -4.6510
    -4.5946  -4.5566  -4.5390  -4.2910   3.4498   6.3254   6.6077   6.8220
     6.8916   8.3325   8.8073   9.2902   9.3130  10.7020  14.3960  14.4365
    14.8847  16.2655

          k =-0.2500 0.3414 0.2500 (  4841 PWs)   bands (ev):

   -45.6982 -22.0354 -21.9967 -21.9964  -6.1875  -5.7317  -5.7230  -4.6594
    -4.6424  -4.5388  -4.4453  -4.4370   3.6327   6.4997   6.6634   6.9736
     7.6080   7.6982   9.3586   9.8283   9.9624  10.0963  13.7463  14.2311
    14.3469  15.6618

          k =-0.2500 0.4389 0.2500 (  4829 PWs)   bands (ev):

   -45.6980 -22.0451 -21.9962 -21.9960  -6.1222  -5.7319  -5.7079  -4.6567
    -4.6321  -4.4993  -4.4450  -4.4324   3.5708   6.3673   6.5664   6.7864
     7.5791   7.7106   9.1396   9.8165   9.9991  10.1610  13.8203  14.3349
    14.5260  15.9783

          k = 0.3500 0.2438 0.3500 (  4833 PWs)   bands (ev):

   -45.6976 -22.0192 -22.0171 -22.0160  -6.1073  -5.7265  -5.6577  -4.6386
    -4.6214  -4.4936  -4.4308  -4.3616   3.7115   6.3340   6.3928   6.7347
     7.0745   7.6589   8.8455   9.8935   9.9011  10.3874  13.9581  14.3229
    14.5755  15.9921

          k =-0.2500 0.4389 0.3500 (  4825 PWs)   bands (ev):

   -45.6975 -22.0441 -22.0170 -21.9953  -6.0433  -5.7266  -5.6951  -4.6395
    -4.6073  -4.4529  -4.4161  -4.3553   3.6477   6.1881   6.4271   6.5602
     7.0137   7.6086   8.5721   9.9373  10.0830  10.3779  14.1235  14.3554
    14.6286  16.3527

          k = 0.4500 0.2438 0.3500 (  4825 PWs)   bands (ev):

   -45.6973 -22.0301 -22.0181 -22.0158  -6.0845  -5.7089  -5.6223  -4.6320
    -4.6041  -4.4546  -4.4289  -4.3221   3.7247   6.2072   6.3752   6.4378
     6.9714   7.6676   8.4434   9.8784   9.9216  10.5131  14.1386  14.4117
    14.7403  16.3564

          k = 0.4500 0.2438 0.4500 (  4833 PWs)   bands (ev):

   -45.6970 -22.0295 -22.0294 -22.0167  -6.0875  -5.6398  -5.6275  -4.6242
    -4.5831  -4.4266  -4.4175  -4.2624   3.7730   6.1998   6.2413   6.3276
     6.6700   7.6549   7.9606   9.9061   9.9071  10.6930  14.3978  14.4531
    14.8474  16.7031

          k =-0.3500 0.4389 0.3500 (  4819 PWs)   bands (ev):

   -45.6971 -22.0431 -22.0161 -22.0160  -5.9058  -5.7759  -5.7429  -4.6095
    -4.5965  -4.3608  -4.3235  -4.3102   3.9560   5.8665   6.0420   6.4677
     6.9506   7.0118   7.7512  10.2959  10.3742  10.4111  14.3225  14.5064
    14.6349  16.7577

          k = 0.4500 0.3414 0.4500 (  4813 PWs)   bands (ev):

   -45.6967 -22.0324 -22.0288 -22.0287  -5.9528  -5.7172  -5.7045  -4.5974
    -4.5801  -4.3113  -4.3027  -4.2282   4.2323   5.7892   5.8210   6.2597
     6.6637   7.0216   7.0900  10.3159  10.3195  10.6840  14.5235  14.5775
    14.8267  17.1500

     the Fermi energy is    10.8000 ev

!    total energy              =    -364.95428125 Ry
     Harris-Foulkes estimate   =    -364.95428125 Ry
     estimated scf accuracy    <          2.0E-09 Ry

     The total energy is the sum of the following terms:

     one-electron contribution =     -79.98165254 Ry
     hartree contribution      =      70.01142744 Ry
     xc contribution           =     -85.89100133 Ry
     ewald contribution        =    -269.09903534 Ry
     smearing contrib. (-TS)   =       0.00598052 Ry

     convergence has been achieved in  13 iterations

     Forces acting on atoms (cartesian axes, Ry/au):

     atom    1 type  1   force =     0.00000000    0.01720202    0.00000000
     atom    2 type  2   force =     0.00000000   -0.01404035    0.00000000
     atom    3 type  3   force =     0.00000000    0.00334483    0.00000000
     atom    4 type  3   force =     0.00000000   -0.00985133    0.00000000
     atom    5 type  3   force =     0.00000000    0.00334483    0.00000000

     Total force =     0.024748     Total SCF correction =     0.000065


     Computing stress (Cartesian axis) and pressure

          total   stress  (Ry/bohr**3)                   (kbar)     P=   49.23
   0.00037946   0.00000000   0.00000000         55.82      0.00      0.00
   0.00000000   0.00024496   0.00000000          0.00     36.04      0.00
   0.00000000   0.00000000   0.00037946          0.00      0.00     55.82


     number of scf cycles    =   2
     number of bfgs steps    =   1

     enthalpy old            =    -364.9453145922 Ry
     enthalpy new            =    -364.9542812524 Ry

     CASE: enthalpy_new < enthalpy_old

     new trust radius        =       0.0362918995 bohr
     new conv_thr            =       0.0000000017 Ry

     new unit-cell volume =    414.12729 a.u.^3 (    61.36733 Ang^3 )
     density =      8.20077 g/cm^3

CELL_PARAMETERS (alat=  7.37000000)
   1.000000000   0.000000000   0.000000000
   0.000000000   1.034502131   0.000000000
   0.000000000   0.000000000   1.000000000

ATOMIC_POSITIONS (crystal)
Pb       0.000000000   0.006025047   0.000000000
Ti       0.500000000   0.537058438   0.500000000
O        0.500000000   0.500603356   0.000000000
O        0.500000000   0.003709804   0.500000000
O        0.000000000   0.500603356   0.500000000



     Writing output data file PbTiO3.save/
     NEW-OLD atomic charge density approx. for the potential

     Check: negative core charge=   -0.000007
     extrapolated charge   44.38170, renormalised to   44.00000

     total cpu time spent up to now is     1143.8 secs

     Self-consistent Calculation

     iteration #  1     ecut=    80.00 Ry     beta= 0.70
     Davidson diagonalization with overlap
     c_bands:  1 eigenvalues not converged
     ethr =  1.00E-06,  avg # of iterations =  7.3

     total cpu time spent up to now is     1217.3 secs

     total energy              =    -364.94172841 Ry
     Harris-Foulkes estimate   =    -364.35022953 Ry
     estimated scf accuracy    <       0.00991986 Ry

     iteration #  2     ecut=    80.00 Ry     beta= 0.70
     Davidson diagonalization with overlap
     ethr =  2.25E-05,  avg # of iterations =  6.4

     total cpu time spent up to now is     1278.3 secs

     total energy              =    -364.95043065 Ry
     Harris-Foulkes estimate   =    -364.96828278 Ry
     estimated scf accuracy    <       0.05282624 Ry

     iteration #  3     ecut=    80.00 Ry     beta= 0.70
     Davidson diagonalization with overlap
     ethr =  2.25E-05,  avg # of iterations =  4.8

     total cpu time spent up to now is     1318.8 secs

     total energy              =    -364.95596603 Ry
     Harris-Foulkes estimate   =    -364.95764537 Ry
     estimated scf accuracy    <       0.00638896 Ry

     iteration #  4     ecut=    80.00 Ry     beta= 0.70
     Davidson diagonalization with overlap
     ethr =  1.45E-05,  avg # of iterations =  1.8

     total cpu time spent up to now is     1347.2 secs

     total energy              =    -364.95576608 Ry
     Harris-Foulkes estimate   =    -364.95638603 Ry
     estimated scf accuracy    <       0.00241683 Ry

     iteration #  5     ecut=    80.00 Ry     beta= 0.70
     Davidson diagonalization with overlap
     ethr =  5.49E-06,  avg # of iterations =  2.0

     total cpu time spent up to now is     1376.2 secs

     total energy              =    -364.95561199 Ry
     Harris-Foulkes estimate   =    -364.95590622 Ry
     estimated scf accuracy    <       0.00099605 Ry

     iteration #  6     ecut=    80.00 Ry     beta= 0.70
     Davidson diagonalization with overlap
     ethr =  2.26E-06,  avg # of iterations =  2.9

     total cpu time spent up to now is     1405.3 secs

     total energy              =    -364.95557350 Ry
     Harris-Foulkes estimate   =    -364.95567494 Ry
     estimated scf accuracy    <       0.00029833 Ry

     iteration #  7     ecut=    80.00 Ry     beta= 0.70
     Davidson diagonalization with overlap
     ethr =  6.78E-07,  avg # of iterations =  2.6

     total cpu time spent up to now is     1436.7 secs

     total energy              =    -364.95559684 Ry
     Harris-Foulkes estimate   =    -364.95561321 Ry
     estimated scf accuracy    <       0.00004680 Ry

     iteration #  8     ecut=    80.00 Ry     beta= 0.70
     Davidson diagonalization with overlap
     ethr =  1.06E-07,  avg # of iterations =  3.5

     total cpu time spent up to now is     1473.3 secs

     total energy              =    -364.95560836 Ry
     Harris-Foulkes estimate   =    -364.95560911 Ry
     estimated scf accuracy    <       0.00000373 Ry

     iteration #  9     ecut=    80.00 Ry     beta= 0.70
     Davidson diagonalization with overlap
     ethr =  8.47E-09,  avg # of iterations =  2.4

     total cpu time spent up to now is     1503.4 secs

     total energy              =    -364.95560877 Ry
     Harris-Foulkes estimate   =    -364.95560874 Ry
     estimated scf accuracy    <       0.00000149 Ry

     iteration # 10     ecut=    80.00 Ry     beta= 0.70
     Davidson diagonalization with overlap
     ethr =  3.38E-09,  avg # of iterations =  2.0

     total cpu time spent up to now is     1533.5 secs

     total energy              =    -364.95560807 Ry
     Harris-Foulkes estimate   =    -364.95560892 Ry
     estimated scf accuracy    <       0.00000179 Ry

     iteration # 11     ecut=    80.00 Ry     beta= 0.70
     Davidson diagonalization with overlap
     ethr =  3.38E-09,  avg # of iterations =  3.0

     total cpu time spent up to now is     1566.0 secs

     total energy              =    -364.95560836 Ry
     Harris-Foulkes estimate   =    -364.95560841 Ry
     estimated scf accuracy    <       0.00000013 Ry

     iteration # 12     ecut=    80.00 Ry     beta= 0.70
     Davidson diagonalization with overlap
     ethr =  3.02E-10,  avg # of iterations =  3.0

     total cpu time spent up to now is     1602.1 secs

     total energy              =    -364.95560839 Ry
     Harris-Foulkes estimate   =    -364.95560839 Ry
     estimated scf accuracy    <          5.5E-09 Ry

     iteration # 13     ecut=    80.00 Ry     beta= 0.70
     Davidson diagonalization with overlap
     ethr =  1.25E-11,  avg # of iterations =  3.7

     total cpu time spent up to now is     1639.5 secs

     End of self-consistent calculation

          k = 0.0500 0.0483 0.0500 (  4855 PWs)   bands (ev):

   -45.8835 -22.1638 -22.1439 -22.1439  -7.0727  -6.0182  -6.0057  -4.7795
    -4.7791  -4.7728  -4.6685  -4.5971   4.7322   6.9186   7.0800   7.2009
     9.0967   9.1639   9.3349   9.5764   9.7643   9.7880  12.7221  12.9680
    12.9685  14.9718

          k = 0.0500 0.0483 0.1500 (  4845 PWs)   bands (ev):

   -45.8832 -22.1634 -22.1569 -22.1434  -6.9784  -5.9819  -5.9705  -4.7886
    -4.7821  -4.7785  -4.6758  -4.6184   4.4211   6.9676   7.1291   7.3861
     8.8687   9.0575   9.3405   9.4375   9.5923   9.7667  12.9704  13.0734
    13.1640  14.9918

          k = 0.0500 0.0483 0.2500 (  4839 PWs)   bands (ev):

   -45.8827 -22.1783 -22.1623 -22.1426  -6.8210  -5.9201  -5.9114  -4.8051
    -4.7955  -4.7775  -4.7203  -4.6249   4.0357   7.0095   7.1735   7.3527
     8.6782   8.7739   9.2880   9.3750   9.5726   9.8415  12.9763  13.5666
    13.5927  14.9883

          k = 0.0500 0.0483 0.3500 (  4837 PWs)   bands (ev):

   -45.8823 -22.1992 -22.1616 -22.1418  -6.6570  -5.8527  -5.8501  -4.8300
    -4.8073  -4.7780  -4.7762  -4.6197   3.7364   6.6062   7.3217   7.5050
     8.3564   8.4559   9.2315   9.3750   9.6883  10.2623  12.9798  14.0232
    14.0488  14.5537

          k = 0.0500 0.0483 0.4500 (  4849 PWs)   bands (ev):

   -45.8820 -22.2121 -22.1611 -22.1413  -6.5517  -5.8141  -5.8040  -4.8613
    -4.8145  -4.8038  -4.7757  -4.6160   3.5830   6.2774   7.4973   7.7207
     8.0629   8.1734   9.1826   9.4182   9.7359  10.7464  12.9758  13.7828
    14.3023  14.3390

          k = 0.0500 0.1450 0.1500 (  4852 PWs)   bands (ev):

   -45.8830 -22.1721 -22.1566 -22.1431  -6.9020  -5.9615  -5.9454  -4.7995
    -4.7853  -4.7807  -4.6877  -4.6190   4.1802   6.9726   7.1834   7.5386
     8.6241   8.8893   9.2370   9.4419   9.5569   9.7980  13.0687  13.2245
    13.3744  15.3027

          k = 0.0500 0.1450 0.2500 (  4839 PWs)   bands (ev):

   -45.8826 -22.1780 -22.1709 -22.1423  -6.7517  -5.9116  -5.8837  -4.8160
    -4.7932  -4.7833  -4.6950  -4.6383   3.8706   6.9174   7.2469   7.4505
     8.4279   8.6597   9.1017   9.3776   9.4938   9.9765  13.2211  13.5747
    13.7346  15.3260

          k = 0.0500 0.1450 0.3500 (  4849 PWs)   bands (ev):

   -45.8821 -22.1988 -22.1702 -22.1415  -6.5999  -5.8551  -5.8179  -4.8368
    -4.8004  -4.7828  -4.7284  -4.6365   3.6120   6.5924   7.2712   7.5466
     8.1429   8.4569   9.0452   9.4029   9.4714  10.3045  13.2188  14.0278
    14.1408  14.7276

          k = 0.0500 0.1450 0.4500 (  4848 PWs)   bands (ev):

   -45.8819 -22.2116 -22.1697 -22.1410  -6.5063  -5.8115  -5.7783  -4.8551
    -4.8065  -4.7825  -4.7466  -4.6346   3.4741   6.2819   7.3787   7.6752
     7.9818   8.1905   9.0966   9.4096   9.4751  10.5761  13.2048  14.1761
    14.2984  14.4123

[...]
     5.6971   6.6138   7.0427   7.2206   7.6777   8.0703  12.0860  12.4283
    12.5555  13.4529

          k = 0.1500 0.3842 0.4500 (  5662 PWs)   bands (ev):

   -47.6559 -24.0994 -23.9456 -23.8976  -8.2362  -7.8581  -7.5512  -6.5325
    -6.4905  -6.4805  -6.3050  -6.1459   1.8034   4.4598   4.9413   5.1117
     5.6066   6.6015   7.1584   7.2566   7.7258   7.9503  12.0813  12.4918
    12.5871  13.6159

          k = 0.2500 0.2135 0.2500 (  5670 PWs)   bands (ev):

   -47.6562 -24.0961 -23.9166 -23.9165  -8.2997  -7.8965  -7.6119  -6.5270
    -6.5118  -6.4699  -6.3145  -6.1758   1.9266   4.8395   4.9224   5.3813
     6.1038   6.1571   7.0388   7.5009   7.8910   7.9636  11.7214  12.0855
    12.4147  13.6310

          k = 0.2500 0.2135 0.3500 (  5668 PWs)   bands (ev):

   -47.6558 -24.0951 -23.9342 -23.9158  -8.1874  -7.8954  -7.6269  -6.5177
    -6.4991  -6.4473  -6.2708  -6.1610   1.8803   4.7039   4.8540   5.1439
     5.8678   6.2121   7.0305   7.4409   7.8650   7.9963  11.8957  12.1295
    12.4128  13.6495

          k = 0.2500 0.2135 0.4500 (  5663 PWs)   bands (ev):

   -47.6555 -24.0943 -23.9451 -23.9154  -8.1256  -7.8831  -7.6388  -6.5142
    -6.4874  -6.4291  -6.2435  -6.1575   1.8483   4.6546   4.7781   4.9962
     5.7729   6.3112   6.9396   7.3695   7.7943   8.0379  12.0653  12.1516
    12.4749  13.5825

          k = 0.2500 0.2989 0.3500 (  5659 PWs)   bands (ev):

   -47.6557 -24.0976 -23.9341 -23.9157  -8.1738  -7.8990  -7.6021  -6.5167
    -6.4937  -6.4439  -6.2686  -6.1492   1.8743   4.5973   4.6950   5.0370
     5.7331   6.1325   7.2152   7.5685   7.8008   7.9864  11.9463  12.1978
    12.4707  13.8556

          k = 0.2500 0.2989 0.4500 (  5655 PWs)   bands (ev):

   -47.6555 -24.0968 -23.9450 -23.9153  -8.1253  -7.8849  -7.6058  -6.5122
    -6.4817  -6.4279  -6.2377  -6.1422   1.8778   4.5490   4.5992   4.8588
     5.6240   6.2199   7.0276   7.5304   7.7899   8.0359  12.1145  12.2160
    12.4936  13.9075

          k = 0.2500 0.3842 0.4500 (  5645 PWs)   bands (ev):

   -47.6554 -24.0984 -23.9449 -23.9152  -8.1259  -7.8860  -7.5841  -6.5114
    -6.4778  -6.4272  -6.2342  -6.1329   1.8947   4.4681   4.5084   4.8028
     5.5332   6.1781   6.9661   7.6122   7.8847   8.0386  12.1413  12.2807
    12.4907  14.0701

          k = 0.3500 0.2989 0.3500 (  5657 PWs)   bands (ev):

   -47.6553 -24.0965 -23.9334 -23.9333  -8.0657  -7.9131  -7.6252  -6.4900
    -6.4876  -6.4012  -6.2114  -6.1362   1.8895   4.4632   4.6461   4.7704
     5.6953   5.8336   6.8699   7.6569   7.7755   8.2654  12.0377  12.1806
    12.4625  14.1343

          k = 0.3500 0.2989 0.4500 (  5644 PWs)   bands (ev):

   -47.6550 -24.0958 -23.9442 -23.9329  -8.0110  -7.9086  -7.6397  -6.4853
    -6.4706  -6.3702  -6.1762  -6.1323   1.8839   4.4591   4.5822   4.6512
     5.4981   5.9114   6.4788   7.7114   7.7828   8.3973  12.1335  12.1863
    12.5136  14.1774

          k = 0.3500 0.3842 0.4500 (  5652 PWs)   bands (ev):

   -47.6550 -24.0973 -23.9441 -23.9328  -8.0143  -7.9138  -7.6156  -6.4824
    -6.4689  -6.3705  -6.1671  -6.1210   1.9486   4.3371   4.5005   4.5755
     5.4610   5.7905   6.2998   7.8641   7.9686   8.3931  12.1627  12.1907
    12.5499  14.5103

          k = 0.4500 0.3842 0.4500 (  5637 PWs)   bands (ev):

   -47.6548 -24.0966 -23.9436 -23.9436  -7.9462  -7.9290  -7.6350  -6.4726
    -6.4535  -6.3331  -6.1262  -6.1152   1.9526   4.4117   4.4759   4.5177
     5.3105   5.6572   5.7731   7.9769   7.9976   8.5851  12.1711  12.1815
    12.6470  14.4339

          k =-0.0500 0.1281 0.0500 (  5672 PWs)   bands (ev):

   -47.6576 -24.0968 -23.8891 -23.8891  -8.7281  -7.8943  -7.5958  -6.5231
    -6.5217  -6.4831  -6.4529  -6.2614   2.3468   5.2760   5.2793   6.1604
     6.5187   6.6143   6.8913   7.1245   7.7349   7.8415  11.0300  12.4897
    12.5972  13.5137

          k =-0.0500 0.2135 0.0500 (  5678 PWs)   bands (ev):

   -47.6575 -24.0995 -23.8890 -23.8890  -8.6741  -7.8851  -7.6034  -6.5255
    -6.5217  -6.4829  -6.4558  -6.2725   2.1149   5.2202   5.2220   6.1864
     6.5765   6.5873   7.1148   7.1897   7.7703   7.8342  11.0275  12.5917
    12.6978  13.0638

          k =-0.0500 0.2989 0.0500 (  5679 PWs)   bands (ev):

   -47.6575 -24.1021 -23.8889 -23.8889  -8.6173  -7.8757  -7.6137  -6.5279
    -6.5216  -6.4828  -6.4588  -6.2837   1.9114   5.1654   5.1686   6.0399
     6.6525   6.6526   7.1073   7.4826   7.8243   7.9146  11.0246  12.3796
    12.7006  12.8034

          k =-0.0500 0.3842 0.0500 (  5668 PWs)   bands (ev):

   -47.6575 -24.1037 -23.8889 -23.8889  -8.5805  -7.8699  -7.6215  -6.5294
    -6.5215  -6.4827  -6.4606  -6.2907   1.7961   5.1334   5.1352   5.9341
     6.6911   6.7064   7.1044   7.5695   7.8167   8.1512  11.0221  11.9401
    12.7724  12.8708

          k = 0.1500 0.0427 0.1500 (  5667 PWs)   bands (ev):

   -47.6571 -24.0940 -23.8998 -23.8996  -8.6030  -7.8964  -7.5987  -6.5327
    -6.5283  -6.4926  -6.3946  -6.2199   2.3043   5.2363   5.2909   5.6382
     6.3008   6.7495   6.9660   7.2571   7.6210   7.8160  11.4279  12.0144
    12.3340  13.7794

          k =-0.0500 0.2135 0.1500 (  5668 PWs)   bands (ev):

   -47.6573 -24.0988 -23.9000 -23.8886  -8.6024  -7.8873  -7.5975  -6.5319
    -6.5202  -6.4900  -6.4343  -6.2454   2.0624   5.0663   5.2904   5.9685
     6.5288   6.5850   7.0999   7.2772   7.6131   7.8825  11.2657  12.2994
    12.6976  13.2761

          k = 0.2500 0.0427 0.1500 (  5670 PWs)   bands (ev):

   -47.6567 -24.0931 -23.9174 -23.8990  -8.4720  -7.8943  -7.6096  -6.5380
    -6.5215  -6.4921  -6.3572  -6.2003   2.1531   5.0530   5.3396   5.6005
     6.2167   6.5232   6.8498   7.2399   7.6595   8.0584  11.6844  11.9396
    12.3061  13.5491

          k =-0.0500 0.2989 0.1500 (  5671 PWs)   bands (ev):

   -47.6573 -24.1014 -23.8999 -23.8885  -8.5513  -7.8801  -7.6026  -6.5321
    -6.5177  -6.4900  -6.4407  -6.2518   1.8820   4.9777   5.2391   5.9881
     6.4970   6.6464   7.1243   7.2949   7.6394   8.0942  11.2543  12.4340
    12.7110  12.8047

          k = 0.3500 0.0427 0.1500 (  5670 PWs)   bands (ev):

   -47.6562 -24.0920 -23.9351 -23.8983  -8.3348  -7.8885  -7.6270  -6.5393
    -6.5115  -6.4883  -6.3218  -6.1901   2.0113   4.8519   5.3773   5.7203
     5.9550   6.4939   6.7295   7.0786   7.5653   8.4177  11.9560  12.0406
    12.3123  13.0642

          k =-0.0500 0.3842 0.1500 (  5683 PWs)   bands (ev):

   -47.6572 -24.1030 -23.8998 -23.8885  -8.5186  -7.8756  -7.6068  -6.5329
    -6.5150  -6.4900  -6.4452  -6.2558   1.7785   4.9225   5.2080   5.9487
     6.5227   6.6859   7.1372   7.3014   7.6413   8.2720  11.2462  12.3687
    12.5307  12.8648

          k = 0.4500 0.0427 0.1500 (  5677 PWs)   bands (ev):

   -47.6560 -24.0913 -23.9461 -23.8979  -8.2483  -7.8758  -7.6469  -6.5386
    -6.5050  -6.4843  -6.2956  -6.1921   1.9291   4.7350   5.4147   5.6783
     6.0208   6.3659   6.5822   7.0245   7.5238   8.6353  12.0711  12.1447
    12.4273  12.7269

          k = 0.2500 0.0427 0.2500 (  5662 PWs)   bands (ev):

   -47.6562 -24.0921 -23.9168 -23.9166  -8.3454  -7.8923  -7.6334  -6.5254
    -6.5221  -6.4755  -6.3127  -6.1869   2.0157   5.0205   5.2205   5.6314
     6.1067   6.1082   6.8767   7.2222   7.8800   8.1132  11.7885  11.9593
    12.1798  13.3891

          k =-0.0500 0.2989 0.2500 (  5670 PWs)   bands (ev):

   -47.6568 -24.1003 -23.9176 -23.8879  -8.4478  -7.8829  -7.5812  -6.5320
    -6.5154  -6.4997  -6.4112  -6.2079   1.8382   4.7664   5.3636   5.7628
     6.3239   6.5539   6.9159   7.3081   7.4958   8.2274  11.5943  12.3160
    12.8152  13.2085

          k = 0.3500 0.0427 0.2500 (  5668 PWs)   bands (ev):

   -47.6558 -24.0910 -23.9344 -23.9160  -8.2135  -7.8889  -7.6614  -6.5216
    -6.5060  -6.4523  -6.2750  -6.1804   1.8790   4.8559   5.2404   5.5828
     5.8931   6.1777   6.7802   7.0675   7.9616   8.1769  11.9270  12.0488
    12.1929  13.1380

          k =-0.0500 0.3842 0.2500 (  5676 PWs)   bands (ev):

   -47.6568 -24.1019 -23.9175 -23.8878  -8.4240  -7.8789  -7.5783  -6.5316
    -6.5120  -6.4994  -6.4172  -6.2072   1.7546   4.6931   5.3393   5.7890
     6.2819   6.5401   6.9230   7.3199   7.5741   8.2640  11.5832  12.4175
    12.8699  13.0406

          k = 0.4500 0.0427 0.2500 (  5668 PWs)   bands (ev):

   -47.6555 -24.0903 -23.9453 -23.9155  -8.1304  -7.8798  -7.6859  -6.5193
    -6.4943  -6.4320  -6.2530  -6.1823   1.7962   4.7352   5.2960   5.4014
     6.0533   6.2558   6.4769   7.0428   7.9751   8.1923  11.9727  12.0905
    12.4045  12.8888

          k = 0.3500 0.0427 0.3500 (  5669 PWs)   bands (ev):

   -47.6554 -24.0900 -23.9336 -23.9335  -8.0866  -7.8899  -7.6989  -6.5054
    -6.4915  -6.4083  -6.2340  -6.1778   1.7361   4.7569   5.1873   5.5142
     5.9105   6.0628   6.8360   6.8428   7.8317   8.2675  11.9577  12.1373
    12.1668  13.0405

          k =-0.0500 0.3842 0.3500 (  5669 PWs)   bands (ev):

   -47.6564 -24.1007 -23.9352 -23.8871  -8.3429  -7.8645  -7.5477  -6.5303
    -6.5127  -6.5064  -6.3801  -6.1700   1.7398   4.5290   5.4366   5.5733
     5.9262   6.5214   6.8262   7.0993   7.7700   8.1729  11.8799  12.4756
    12.8832  13.4926

          k = 0.4500 0.0427 0.3500 (  5649 PWs)   bands (ev):

   -47.6551 -24.0893 -23.9445 -23.9331  -8.0054  -7.8857  -7.7289  -6.5010
    -6.4749  -6.3719  -6.2145  -6.1800   1.6445   4.6382   5.2119   5.4743
     5.8949   6.2458   6.5198   6.8973   7.5675   8.4047  12.0173  12.0861
    12.3719  12.8374

          k = 0.4500 0.0427 0.4500 (  5660 PWs)   bands (ev):

   -47.6549 -24.0886 -23.9440 -23.9439  -7.9175  -7.8893  -7.7660  -6.4944
    -6.4548  -6.3253  -6.1930  -6.1867   1.5438   4.5244   5.2329   5.6502
     5.7429   6.3728   6.5257   6.7449   7.1022   8.5923  12.0184  12.2642
    12.3585  12.6445

          k =-0.1500 0.2135 0.1500 (  5667 PWs)   bands (ev):

   -47.6570 -24.0982 -23.8996 -23.8995  -8.5310  -7.8892  -7.5982  -6.5371
    -6.5182  -6.4917  -6.4034  -6.2249   2.0250   5.0957   5.1063   5.8454
     6.4383   6.4693   7.0302   7.3195   7.7998   7.8741  11.3892  12.2029
    12.5382  13.4466

          k =-0.1500 0.2989 0.1500 (  5676 PWs)   bands (ev):

   -47.6570 -24.1008 -23.8995 -23.8994  -8.4848  -7.8847  -7.5989  -6.5397
    -6.5113  -6.4906  -6.4103  -6.2282   1.8697   4.9970   5.0372   5.9005
     6.3588   6.4999   7.0469   7.3618   7.7866   8.0753  11.3662  12.3354
    12.6532  13.0157

          k =-0.1500 0.3842 0.1500 (  5679 PWs)   bands (ev):

   -47.6570 -24.1024 -23.8995 -23.8994  -8.4554  -7.8819  -7.5998  -6.5412
    -6.5068  -6.4894  -6.4155  -6.2302   1.7789   4.9414   4.9905   5.9072
     6.3259   6.5322   7.0500   7.3898   7.7767   8.2115  11.3547  12.4256
    12.7088  12.7832

          k = 0.2500 0.1281 0.2500 (  5670 PWs)   bands (ev):

   -47.6562 -24.0936 -23.9168 -23.9165  -8.3277  -7.8939  -7.6256  -6.5261
    -6.5180  -6.4736  -6.3132  -6.1826   1.9833   4.9420   5.0940   5.4881
     6.1327   6.2105   6.8812   7.3368   7.8839   8.0591  11.7512  12.0029
    12.2847  13.5621

          k =-0.1500 0.2989 0.2500 (  5673 PWs)   bands (ev):

   -47.6566 -24.0997 -23.9172 -23.8988  -8.3801  -7.8894  -7.5886  -6.5377
    -6.5101  -6.4855  -6.3708  -6.1928   1.8505   4.7807   5.0551   5.6673
     6.0070   6.4527   7.0779   7.4932   7.6732   8.1034  11.6162  12.2514
    12.6160  13.4113

          k = 0.3500 0.1281 0.2500 (  5669 PWs)   bands (ev):

   -47.6558 -24.0926 -23.9343 -23.9159  -8.2029  -7.8915  -7.6490  -6.5196
    -6.5038  -6.4504  -6.2733  -6.1730   1.8810   4.8045   5.0667   5.3233
     5.9485   6.2758   6.8212   7.2215   7.9537   8.0729  11.8960  12.0793
    12.2999  13.3592

          k =-0.1500 0.3842 0.2500 (  5676 PWs)   bands (ev):

   -47.6566 -24.1013 -23.9171 -23.8987  -8.3585  -7.8879  -7.5831  -6.5385
    -6.5073  -6.4823  -6.3753  -6.1912   1.7821   4.7091   5.0214   5.7115
     5.8875   6.4566   7.1218   7.5604   7.6931   8.0964  11.6220  12.3385
    12.6785  13.3236

          k = 0.4500 0.1281 0.2500 (  5663 PWs)   bands (ev):

   -47.6555 -24.0919 -23.9452 -23.9155  -8.1278  -7.8811  -7.6689  -6.5170
    -6.4921  -6.4308  -6.2494  -6.1728   1.8166   4.7132   5.0487   5.2012
     5.9337   6.4009   6.6416   7.1623   7.9331   8.0815  12.0067  12.1186
    12.4370  13.1620

          k = 0.3500 0.1281 0.3500 (  5666 PWs)   bands (ev):

   -47.6554 -24.0915 -23.9336 -23.9335  -8.0801  -7.8955  -7.6836  -6.5012
    -6.4912  -6.4063  -6.2288  -6.1679   1.7718   4.7200   5.0475   5.1525
     5.7965   6.2442   6.8424   7.1338   7.6833   8.2678  11.9508  12.1597
    12.2739  13.2982

          k =-0.1500 0.3842 0.3500 (  5662 PWs)   bands (ev):

   -47.6561 -24.1001 -23.9347 -23.8981  -8.2754  -7.8784  -7.5634  -6.5344
    -6.5004  -6.4788  -6.3347  -6.1592   1.7918   4.5396   5.0034   5.3852
     5.6281   6.5070   7.1729   7.4063   7.7857   7.9407  11.9151  12.3769
    12.6408  13.7332

          k = 0.4500 0.1281 0.3500 (  5657 PWs)   bands (ev):

   -47.6551 -24.0908 -23.9444 -23.9330  -8.0051  -7.8912  -7.7101  -6.4970
    -6.4741  -6.3710  -6.2055  -6.1689   1.6967   4.6231   5.0754   5.1118
     5.6747   6.3728   6.7214   7.0862   7.4200   8.4030  12.0591  12.1569
    12.3826  13.1234

          k = 0.4500 0.1281 0.4500 (  5640 PWs)   bands (ev):

   -47.6548 -24.0901 -23.9439 -23.9439  -7.9217  -7.8971  -7.7431  -6.4902
    -6.4545  -6.3262  -6.1804  -6.1729   1.6106   4.5132   5.1550   5.2437
     5.4324   6.4375   6.6927   6.9753   7.0504   8.5911  12.1516  12.3087
    12.3091  12.9504

          k =-0.2500 0.2989 0.2500 (  5663 PWs)   bands (ev):

   -47.6561 -24.0987 -23.9165 -23.9164  -8.2724  -7.8991  -7.5966  -6.5279
    -6.5062  -6.4652  -6.3166  -6.1691   1.8652   4.7640   4.7764   5.3191
     5.9212   6.1724   7.2280   7.6428   7.8527   7.8998  11.7407  12.1852
    12.5057  13.6526

          k =-0.2500 0.3842 0.2500 (  5684 PWs)   bands (ev):

   -47.6561 -24.1002 -23.9164 -23.9163  -8.2561  -7.9007  -7.5861  -6.5283
    -6.5031  -6.4616  -6.3183  -6.1651   1.8252   4.6951   4.7258   5.2961
     5.8018   6.1796   7.3446   7.7200   7.7695   7.9074  11.7822  12.2569
    12.5447  13.6997

          k = 0.3500 0.2135 0.3500 (  5663 PWs)   bands (ev):

   -47.6553 -24.0940 -23.9335 -23.9334  -8.0717  -7.9044  -7.6561  -6.4943
    -6.4906  -6.4035  -6.2202  -6.1520   1.8304   4.6164   4.8343   4.8877
     5.7253   6.0731   6.9617   7.4882   7.5581   8.2676  11.9738  12.1614
    12.4008  13.7544

          k =-0.2500 0.3842 0.3500 (  5660 PWs)   bands (ev):

   -47.6557 -24.0991 -23.9340 -23.9157  -8.1665  -7.9011  -7.5854  -6.5164
    -6.4902  -6.4417  -6.2674  -6.1420   1.8676   4.5286   4.6203   4.9856
     5.6339   6.1013   7.2643   7.5754   7.8761   7.9745  12.0062  12.2514
    12.4811  14.0092

          k = 0.4500 0.2135 0.3500 (  5651 PWs)   bands (ev):

   -47.6551 -24.0933 -23.9443 -23.9329  -8.0070  -7.9000  -7.6765  -6.4908
    -6.4727  -6.3702  -6.1910  -6.1506   1.7865   4.5855   4.7564   4.8552
     5.5570   6.1436   6.7311   7.4403   7.4853   8.4006  12.0965  12.1864
    12.4422  13.6419

          k = 0.4500 0.2135 0.4500 (  5640 PWs)   bands (ev):

   -47.6548 -24.0926 -23.9438 -23.9438  -7.9303  -7.9095  -7.7034  -6.4835
    -6.4541  -6.3283  -6.1598  -6.1507   1.7282   4.4907   4.8679   4.8945
     5.3309   6.1272   6.3521   7.4305   7.4372   8.5891  12.2046  12.2458
    12.4225  13.5122

          k =-0.3500 0.3842 0.3500 (  5656 PWs)   bands (ev):

   -47.6553 -24.0980 -23.9333 -23.9332  -8.0630  -7.9185  -7.6046  -6.4896
    -6.4835  -6.4000  -6.2059  -6.1264   1.9259   4.3703   4.5408   4.7211
     5.6845   5.6889   6.7475   7.7713   7.9352   8.2614  12.1064  12.2019
    12.4712  14.3023

          k = 0.4500 0.2989 0.4500 (  5632 PWs)   bands (ev):

   -47.6548 -24.0950 -23.9437 -23.9437  -7.9400  -7.9216  -7.6617  -6.4767
    -6.4537  -6.3311  -6.1390  -6.1287   1.8608   4.4578   4.5973   4.6497
     5.3143   5.8360   5.9831   7.7818   7.7993   8.5868  12.1823  12.2007
    12.5692  14.0797

     the Fermi energy is     8.7915 ev

!    total energy              =    -364.97276792 Ry
     Harris-Foulkes estimate   =    -364.97276792 Ry
     estimated scf accuracy    <          2.8E-11 Ry

     The total energy is the sum of the following terms:

     one-electron contribution =    -110.12773529 Ry
     hartree contribution      =      81.85955241 Ry
     xc contribution           =     -85.77380447 Ry
     ewald contribution        =    -250.93480901 Ry
     smearing contrib. (-TS)   =       0.00402844 Ry

     convergence has been achieved in  14 iterations

     Forces acting on atoms (cartesian axes, Ry/au):

     atom    1 type  1   force =     0.00000000    0.00005762    0.00000000
     atom    2 type  2   force =     0.00000000   -0.00013941    0.00000000
     atom    3 type  3   force =     0.00000000    0.00004004    0.00000000
     atom    4 type  3   force =     0.00000000    0.00000170    0.00000000
     atom    5 type  3   force =     0.00000000    0.00004004    0.00000000

     Total force =     0.000161     Total SCF correction =     0.000006


     Computing stress (Cartesian axis) and pressure

          total   stress  (Ry/bohr**3)                   (kbar)     P=  -14.83
  -0.00016054   0.00000000   0.00000000        -23.62      0.00      0.00
   0.00000000   0.00001864   0.00000000          0.00      2.74      0.00
   0.00000000   0.00000000  -0.00016054          0.00      0.00    -23.62


     Writing output data file PbTiO3.save/

     init_run     :     46.14s CPU     55.55s WALL (       2 calls)
     electrons    :   7629.57s CPU  10489.44s WALL (      21 calls)
     update_pot   :    511.16s CPU    511.96s WALL (      19 calls)
     forces       :    376.89s CPU    391.39s WALL (      21 calls)
     stress       :    788.56s CPU    814.16s WALL (      21 calls)

     Called by init_run:
     wfcinit      :     16.29s CPU     25.09s WALL (       2 calls)
     potinit      :      7.59s CPU      7.64s WALL (       2 calls)
     hinit0       :     20.81s CPU     20.84s WALL (       2 calls)

     Called by electrons:
     c_bands      :   6450.56s CPU   8758.27s WALL (     263 calls)
     sum_band     :    883.61s CPU   1360.37s WALL (     263 calls)
     v_of_rho     :     57.99s CPU     62.38s WALL (     284 calls)
     newd         :    251.37s CPU    326.02s WALL (     284 calls)
     mix_rho      :      5.87s CPU      6.77s WALL (     263 calls)

     Called by c_bands:
     init_us_2    :     91.15s CPU    126.20s WALL (   42750 calls)
     cegterg      :   6159.97s CPU   8434.90s WALL (   19725 calls)

     Called by sum_band:
     sum_band:bec :      1.11s CPU      1.53s WALL (   19725 calls)
     addusdens    :    292.70s CPU    362.23s WALL (     263 calls)

     Called by *egterg:
     h_psi        :   3314.66s CPU   5298.68s WALL (   90641 calls)
     s_psi        :    619.44s CPU    689.49s WALL (   90641 calls)
     g_psi        :     57.71s CPU     75.88s WALL (   70766 calls)
     cdiaghg      :    117.78s CPU    160.30s WALL (   89066 calls)

     Called by h_psi:
     h_psi:pot    :   3302.20s CPU   5278.43s WALL (   90641 calls)
     h_psi:calbec :    618.53s CPU    692.78s WALL (   90641 calls)
     vloc_psi     :   2048.05s CPU   3892.66s WALL (   90641 calls)
     add_vuspsi   :    630.81s CPU    687.15s WALL (   90641 calls)

     General routines
     calbec       :    916.75s CPU   1019.88s WALL (  118241 calls)
     fft          :     25.66s CPU     28.28s WALL (    4194 calls)
     ffts         :      0.67s CPU      1.01s WALL (     547 calls)
     fftw         :   2114.04s CPU   4040.80s WALL ( 3488858 calls)
     interpolate  :      2.41s CPU      2.96s WALL (     284 calls)

     Parallel routines

     PWSCF        :      2h36m CPU      3h24m WALL


   This run was terminated on:  12:53:45  16May2020            

=------------------------------------------------------------------------------=
   JOB DONE.
=------------------------------------------------------------------------------=
