--------------------------------------------------------------------------
[[1973,1],0]: A high-performance Open MPI point-to-point messaging module
was unable to find any relevant network interfaces:

Module: OpenFabrics (openib)
  Host: ubuntu

Another transport will be used instead, although this may result in
lower performance.
--------------------------------------------------------------------------

     Program PWSCF v.5.1 starts on 12May2020 at 15:54:33 

     This program is part of the open-source Quantum ESPRESSO suite
     for quantum simulation of materials; please cite
         "P. Giannozzi et al., J. Phys.:Condens. Matter 21 395502 (2009);
          URL http://www.quantum-espresso.org", 
     in publications or presentations arising from this work. More details at
     http://www.quantum-espresso.org/quote

     Parallel version (MPI), running on     1 processors
     Reading input from PTO_7.49_10_0.497.pw.in
Warning: card  &CELL ignored
Warning: card   CELL_DYNAMICS = 'BFGS', ignored
Warning: card  / ignored

     Current dimensions of program PWSCF are:
     Max number of different atomic species (ntypx) = 10
     Max number of k-points (npk) =  40000
     Max angular momentum in pseudopotentials (lmaxx) =  3
               file Pb.pbe-dn-rrkjus_psl.0.2.2.UPF: wavefunction(s)  6S renormalized

     Subspace diagonalization in iterative solution of the eigenvalue problem:
     a serial algorithm will be used


     G-vector sticks info
     --------------------
     sticks:   dense  smooth     PW     G-vecs:    dense   smooth      PW
     Sum        3569    1433    421               160467    40651    6235



     bravais-lattice index     =            1
     lattice parameter (alat)  =       7.4900  a.u.
     unit-cell volume          =     420.1897 (a.u.)^3
     number of atoms/cell      =            5
     number of atomic types    =            3
     number of electrons       =        44.00
     number of Kohn-Sham states=           26
     kinetic-energy cutoff     =      80.0000  Ry
     charge density cutoff     =     800.0000  Ry
     convergence threshold     =      1.0E-08
     mixing beta               =       0.7000
     number of iterations used =            8  plain     mixing
     Exchange-correlation      = PBE ( 1  4  3  4 0)
     nstep                     =           50


     celldm(1)=   7.490000  celldm(2)=   0.000000  celldm(3)=   0.000000
     celldm(4)=   0.000000  celldm(5)=   0.000000  celldm(6)=   0.000000

     crystal axes: (cart. coord. in units of alat)
               a(1) = (   1.000000   0.000000   0.000000 )  
               a(2) = (   0.000000   1.000000   0.000000 )  
               a(3) = (   0.000000   0.000000   1.000000 )  

     reciprocal axes: (cart. coord. in units 2 pi/alat)
               b(1) = (  1.000000  0.000000  0.000000 )  
               b(2) = (  0.000000  1.000000  0.000000 )  
               b(3) = (  0.000000  0.000000  1.000000 )  


     PseudoPot. # 1 for Pb read from file:
     ./Pb.pbe-dn-rrkjus_psl.0.2.2.UPF
     MD5 check sum: 7afc420059c37d6888fc09c0f121e83f
     Pseudo is Ultrasoft + core correction, Zval = 14.0
     Generated using "atomic" code by A. Dal Corso  v.5.0.2 svn rev. 9415
     Using radial grid of 1281 points,  6 beta functions with: 
                l(1) =   0
                l(2) =   0
                l(3) =   1
                l(4) =   1
                l(5) =   2
                l(6) =   2
     Q(r) pseudized with 0 coefficients 


     PseudoPot. # 2 for Ti read from file:
     ./Ti.pbe-sp-van_ak.UPF
     MD5 check sum: 8e4df49b7f0d34bbd5052bf3f5ea0213
     Pseudo is Ultrasoft, Zval = 12.0
     Generated by new atomic code, or converted to UPF format
     Using radial grid of  851 points,  6 beta functions with: 
                l(1) =   0
                l(2) =   0
                l(3) =   1
                l(4) =   1
                l(5) =   2
                l(6) =   2
     Q(r) pseudized with  8 coefficients,  rinner =    1.000   1.000   1.000
                                                       1.000   1.000

     PseudoPot. # 3 for  O read from file:
     ./O.pbe-n-rrkjus_psl.0.1.UPF
     MD5 check sum: e057bbcf3229fb5d8c36c0c92f9568b4
     Pseudo is Ultrasoft + core correction, Zval =  6.0
     Generated using "atomic" code by A. Dal Corso  v.5.0.2 svn rev. 9415
     Using radial grid of 1095 points,  4 beta functions with: 
                l(1) =   0
                l(2) =   0
                l(3) =   1
                l(4) =   1
     Q(r) pseudized with 0 coefficients 


     atomic species   valence    mass     pseudopotential
        Pb            14.00   207.20000     Pb( 1.00)
        Ti            12.00    47.87000     Ti( 1.00)
        O              6.00    16.00000      O( 1.00)

      8 Sym. Ops. (no inversion) found



   Cartesian axes

     site n.     atom                  positions (alat units)
         1           Pb  tau(   1) = (   0.0000000   0.0000000   0.0000000  )
         2           Ti  tau(   2) = (   0.5000000   0.4970000   0.5000000  )
         3           O   tau(   3) = (   0.5000000   0.5000000   0.0000000  )
         4           O   tau(   4) = (   0.5000000   0.0000000   0.5000000  )
         5           O   tau(   5) = (   0.0000000   0.5000000   0.5000000  )

     number of k points=    75  Marzari-Vanderbilt smearing, width (Ry)=  0.0250
                       cart. coord. in units 2pi/alat
        k(    1) = (   0.0500000   0.0500000   0.0500000), wk =   0.0160000
        k(    2) = (   0.0500000   0.0500000   0.1500000), wk =   0.0320000
        k(    3) = (   0.0500000   0.0500000   0.2500000), wk =   0.0320000
        k(    4) = (   0.0500000   0.0500000   0.3500000), wk =   0.0320000
        k(    5) = (   0.0500000   0.0500000   0.4500000), wk =   0.0320000
        k(    6) = (   0.0500000   0.1500000   0.1500000), wk =   0.0320000
        k(    7) = (   0.0500000   0.1500000   0.2500000), wk =   0.0320000
        k(    8) = (   0.0500000   0.1500000   0.3500000), wk =   0.0320000
        k(    9) = (   0.0500000   0.1500000   0.4500000), wk =   0.0320000
        k(   10) = (   0.0500000   0.2500000   0.2500000), wk =   0.0320000
        k(   11) = (   0.0500000   0.2500000   0.3500000), wk =   0.0320000
        k(   12) = (   0.0500000   0.2500000   0.4500000), wk =   0.0320000
        k(   13) = (   0.0500000   0.3500000   0.3500000), wk =   0.0320000
        k(   14) = (   0.0500000   0.3500000   0.4500000), wk =   0.0320000
        k(   15) = (   0.0500000   0.4500000   0.4500000), wk =   0.0320000
        k(   16) = (   0.1500000   0.1500000   0.1500000), wk =   0.0160000
        k(   17) = (   0.1500000   0.1500000   0.2500000), wk =   0.0320000
        k(   18) = (   0.1500000   0.1500000   0.3500000), wk =   0.0320000
        k(   19) = (   0.1500000   0.1500000   0.4500000), wk =   0.0320000
        k(   20) = (   0.1500000   0.2500000   0.2500000), wk =   0.0320000
        k(   21) = (   0.1500000   0.2500000   0.3500000), wk =   0.0320000
        k(   22) = (   0.1500000   0.2500000   0.4500000), wk =   0.0320000
        k(   23) = (   0.1500000   0.3500000   0.3500000), wk =   0.0320000
        k(   24) = (   0.1500000   0.3500000   0.4500000), wk =   0.0320000
        k(   25) = (   0.1500000   0.4500000   0.4500000), wk =   0.0320000
        k(   26) = (   0.2500000   0.2500000   0.2500000), wk =   0.0160000
        k(   27) = (   0.2500000   0.2500000   0.3500000), wk =   0.0320000
        k(   28) = (   0.2500000   0.2500000   0.4500000), wk =   0.0320000
        k(   29) = (   0.2500000   0.3500000   0.3500000), wk =   0.0320000
        k(   30) = (   0.2500000   0.3500000   0.4500000), wk =   0.0320000
        k(   31) = (   0.2500000   0.4500000   0.4500000), wk =   0.0320000
        k(   32) = (   0.3500000   0.3500000   0.3500000), wk =   0.0160000
        k(   33) = (   0.3500000   0.3500000   0.4500000), wk =   0.0320000
        k(   34) = (   0.3500000   0.4500000   0.4500000), wk =   0.0320000
        k(   35) = (   0.4500000   0.4500000   0.4500000), wk =   0.0160000
        k(   36) = (  -0.0500000   0.1500000   0.0500000), wk =   0.0160000
        k(   37) = (  -0.0500000   0.2500000   0.0500000), wk =   0.0160000
        k(   38) = (  -0.0500000   0.3500000   0.0500000), wk =   0.0160000
        k(   39) = (  -0.0500000   0.4500000   0.0500000), wk =   0.0160000
        k(   40) = (   0.1500000   0.0500000   0.1500000), wk =   0.0160000
        k(   41) = (  -0.0500000   0.2500000   0.1500000), wk =   0.0320000
        k(   42) = (   0.2500000   0.0500000   0.1500000), wk =   0.0320000
        k(   43) = (  -0.0500000   0.3500000   0.1500000), wk =   0.0320000
        k(   44) = (   0.3500000   0.0500000   0.1500000), wk =   0.0320000
        k(   45) = (  -0.0500000   0.4500000   0.1500000), wk =   0.0320000
        k(   46) = (   0.4500000   0.0500000   0.1500000), wk =   0.0320000
        k(   47) = (   0.2500000   0.0500000   0.2500000), wk =   0.0160000
        k(   48) = (  -0.0500000   0.3500000   0.2500000), wk =   0.0320000
        k(   49) = (   0.3500000   0.0500000   0.2500000), wk =   0.0320000
        k(   50) = (  -0.0500000   0.4500000   0.2500000), wk =   0.0320000
        k(   51) = (   0.4500000   0.0500000   0.2500000), wk =   0.0320000
        k(   52) = (   0.3500000   0.0500000   0.3500000), wk =   0.0160000
        k(   53) = (  -0.0500000   0.4500000   0.3500000), wk =   0.0320000
        k(   54) = (   0.4500000   0.0500000   0.3500000), wk =   0.0320000
        k(   55) = (   0.4500000   0.0500000   0.4500000), wk =   0.0160000
        k(   56) = (  -0.1500000   0.2500000   0.1500000), wk =   0.0160000
        k(   57) = (  -0.1500000   0.3500000   0.1500000), wk =   0.0160000
        k(   58) = (  -0.1500000   0.4500000   0.1500000), wk =   0.0160000
        k(   59) = (   0.2500000   0.1500000   0.2500000), wk =   0.0160000
        k(   60) = (  -0.1500000   0.3500000   0.2500000), wk =   0.0320000
        k(   61) = (   0.3500000   0.1500000   0.2500000), wk =   0.0320000
        k(   62) = (  -0.1500000   0.4500000   0.2500000), wk =   0.0320000
        k(   63) = (   0.4500000   0.1500000   0.2500000), wk =   0.0320000
        k(   64) = (   0.3500000   0.1500000   0.3500000), wk =   0.0160000
        k(   65) = (  -0.1500000   0.4500000   0.3500000), wk =   0.0320000
        k(   66) = (   0.4500000   0.1500000   0.3500000), wk =   0.0320000
        k(   67) = (   0.4500000   0.1500000   0.4500000), wk =   0.0160000
        k(   68) = (  -0.2500000   0.3500000   0.2500000), wk =   0.0160000
        k(   69) = (  -0.2500000   0.4500000   0.2500000), wk =   0.0160000
        k(   70) = (   0.3500000   0.2500000   0.3500000), wk =   0.0160000
        k(   71) = (  -0.2500000   0.4500000   0.3500000), wk =   0.0320000
        k(   72) = (   0.4500000   0.2500000   0.3500000), wk =   0.0320000
        k(   73) = (   0.4500000   0.2500000   0.4500000), wk =   0.0160000
        k(   74) = (  -0.3500000   0.4500000   0.3500000), wk =   0.0160000
        k(   75) = (   0.4500000   0.3500000   0.4500000), wk =   0.0160000

     Dense  grid:   160467 G-vectors     FFT dimensions: (  72,  72,  72)

     Smooth grid:    40651 G-vectors     FFT dimensions: (  45,  45,  45)

     Largest allocated arrays     est. size (Mb)     dimensions
        Kohn-Sham Wavefunctions         2.02 Mb     (    5100,   26)
        NL pseudopotentials             4.67 Mb     (    5100,   60)
        Each V/rho on FFT grid          5.70 Mb     (  373248)
        Each G-vector array             1.22 Mb     (  160467)
        G-vector shells                 0.01 Mb     (     949)
     Largest temporary arrays     est. size (Mb)     dimensions
        Auxiliary wavefunctions         8.09 Mb     (    5100,  104)
        Each subspace H/S matrix        0.17 Mb     (     104,  104)
        Each <psi_i|beta_j> matrix      0.02 Mb     (      60,   26)
        Arrays for rho mixing          45.56 Mb     (  373248,    8)

     Check: negative/imaginary core charge=   -0.000006    0.000000

     Initial potential from superposition of free atoms

     starting charge   42.99760, renormalised to   44.00000
     Starting wfc are   31 randomized atomic wfcs

     total cpu time spent up to now is       18.6 secs

     per-process dynamical memory:   241.7 Mb

     Self-consistent Calculation

     iteration #  1     ecut=    80.00 Ry     beta=0.70
     Davidson diagonalization with overlap
     ethr =  1.00E-02,  avg # of iterations =  2.0

     total cpu time spent up to now is       55.7 secs

     total energy              =    -364.37967413 Ry
     Harris-Foulkes estimate   =    -365.28858831 Ry
     estimated scf accuracy    <       1.13865557 Ry

     iteration #  2     ecut=    80.00 Ry     beta=0.70
     Davidson diagonalization with overlap
     ethr =  2.59E-03,  avg # of iterations =  4.0

     total cpu time spent up to now is      111.5 secs

     total energy              =    -363.01541177 Ry
     Harris-Foulkes estimate   =    -365.91350757 Ry
     estimated scf accuracy    <      11.91935372 Ry

     iteration #  3     ecut=    80.00 Ry     beta=0.70
     Davidson diagonalization with overlap
     ethr =  2.59E-03,  avg # of iterations =  5.2

     total cpu time spent up to now is      169.7 secs

     total energy              =    -364.93664662 Ry
     Harris-Foulkes estimate   =    -365.11389287 Ry
     estimated scf accuracy    <       0.47799168 Ry

     iteration #  4     ecut=    80.00 Ry     beta=0.70
     Davidson diagonalization with overlap
     ethr =  1.09E-03,  avg # of iterations =  3.3

     total cpu time spent up to now is      206.5 secs

     total energy              =    -364.92444943 Ry
     Harris-Foulkes estimate   =    -364.97452821 Ry
     estimated scf accuracy    <       0.18578169 Ry

     iteration #  5     ecut=    80.00 Ry     beta=0.70
     Davidson diagonalization with overlap
     ethr =  4.22E-04,  avg # of iterations =  4.3

     total cpu time spent up to now is      252.9 secs

     total energy              =    -364.95634484 Ry
     Harris-Foulkes estimate   =    -364.95722348 Ry
     estimated scf accuracy    <       0.00341647 Ry

     iteration #  6     ecut=    80.00 Ry     beta=0.70
     Davidson diagonalization with overlap
     ethr =  7.76E-06,  avg # of iterations =  4.6

     total cpu time spent up to now is      303.2 secs

     total energy              =    -364.95731983 Ry
     Harris-Foulkes estimate   =    -364.95743890 Ry
     estimated scf accuracy    <       0.00031173 Ry

     iteration #  7     ecut=    80.00 Ry     beta=0.70
     Davidson diagonalization with overlap
     ethr =  7.08E-07,  avg # of iterations =  3.4

     total cpu time spent up to now is      353.3 secs

     total energy              =    -364.95731519 Ry
     Harris-Foulkes estimate   =    -364.95746904 Ry
     estimated scf accuracy    <       0.00047192 Ry

     iteration #  8     ecut=    80.00 Ry     beta=0.70
     Davidson diagonalization with overlap
     ethr =  7.08E-07,  avg # of iterations =  3.1

     total cpu time spent up to now is      400.9 secs

     total energy              =    -364.95739931 Ry
     Harris-Foulkes estimate   =    -364.95742654 Ry
     estimated scf accuracy    <       0.00009351 Ry

     iteration #  9     ecut=    80.00 Ry     beta=0.70
     Davidson diagonalization with overlap
     ethr =  2.13E-07,  avg # of iterations =  2.0

     total cpu time spent up to now is      445.4 secs

     total energy              =    -364.95739563 Ry
     Harris-Foulkes estimate   =    -364.95740784 Ry
     estimated scf accuracy    <       0.00002924 Ry

     iteration # 10     ecut=    80.00 Ry     beta=0.70
     Davidson diagonalization with overlap
     ethr =  6.65E-08,  avg # of iterations =  2.3

     total cpu time spent up to now is      485.5 secs

     total energy              =    -364.95739852 Ry
     Harris-Foulkes estimate   =    -364.95739932 Ry
     estimated scf accuracy    <       0.00000205 Ry

     iteration # 11     ecut=    80.00 Ry     beta=0.70
     Davidson diagonalization with overlap
     ethr =  4.66E-09,  avg # of iterations =  3.3

     total cpu time spent up to now is      537.3 secs

     total energy              =    -364.95739904 Ry
     Harris-Foulkes estimate   =    -364.95739909 Ry
     estimated scf accuracy    <       0.00000016 Ry

     iteration # 12     ecut=    80.00 Ry     beta=0.70
     Davidson diagonalization with overlap
     ethr =  3.66E-10,  avg # of iterations =  2.2

     total cpu time spent up to now is      580.2 secs

     total energy              =    -364.95739906 Ry
     Harris-Foulkes estimate   =    -364.95739907 Ry
     estimated scf accuracy    <       0.00000001 Ry

     iteration # 13     ecut=    80.00 Ry     beta=0.70
     Davidson diagonalization with overlap
     ethr =  2.99E-11,  avg # of iterations =  3.1

     total cpu time spent up to now is      630.6 secs

     End of self-consistent calculation

          k = 0.0500 0.0500 0.0500 (  5047 PWs)   bands (ev):

   -46.2712 -22.5109 -22.5106 -22.5105  -7.2247  -6.1951  -6.1945  -5.0130
    -5.0130  -5.0126  -4.8716  -4.8715   4.5044   6.8275   6.8277   6.9712
     9.0970   9.0971   9.2117   9.5571   9.5611   9.5979  12.3596  12.3696
    12.3710  14.4776

          k = 0.0500 0.0500 0.1500 (  5074 PWs)   bands (ev):

   -46.2710 -22.5212 -22.5105 -22.5102  -7.1381  -6.1637  -6.1629  -5.0219
    -5.0196  -5.0122  -4.9049  -4.8665   4.2067   6.8674   6.8975   7.1635
     8.8553   8.8996   9.2085   9.2963   9.5267   9.5535  12.3689  12.6970
    12.6996  14.4785

          k = 0.0500 0.0500 0.2500 (  5093 PWs)   bands (ev):

   -46.2707 -22.5384 -22.5099 -22.5096  -6.9931  -6.1124  -6.1087  -5.0379
    -5.0297  -5.0113  -4.9613  -4.8600   3.8392   6.8535   7.0275   7.1528
     8.5115   8.5791   9.1509   9.2526   9.5524   9.6498  12.3718  13.1718
    13.1794  14.4788

          k = 0.0500 0.0500 0.3500 (  5090 PWs)   bands (ev):

   -46.2703 -22.5555 -22.5093 -22.5089  -6.8409  -6.0630  -6.0474  -5.0634
    -5.0386  -5.0147  -5.0104  -4.8555   3.5551   6.4526   7.2002   7.2982
     8.1655   8.2208   9.0825   9.4059   9.5968  10.0234  12.3736  13.6081
    13.6162  14.3389

          k = 0.0500 0.0500 0.4500 (  5073 PWs)   bands (ev):

   -46.2701 -22.5660 -22.5089 -22.5085  -6.7422  -6.0338  -6.0050  -5.0946
    -5.0435  -5.0366  -5.0098  -4.8538   3.4101   6.1266   7.3727   7.5371
     7.8880   7.9007   9.0393   9.4819   9.6296  10.4623  12.3720  13.6078
    13.8675  13.8737

          k = 0.0500 0.1500 0.1500 (  5079 PWs)   bands (ev):

   -46.2708 -22.5213 -22.5208 -22.5098  -7.0539  -6.1401  -6.1308  -5.0316
    -5.0211  -5.0179  -4.9015  -4.8810   3.9904   6.8209   6.9510   7.3319
     8.5360   8.7338   9.0947   9.3355   9.3802   9.5628  12.6765  12.7232
    12.9502  14.7351

          k = 0.0500 0.1500 0.2500 (  5077 PWs)   bands (ev):

   -46.2705 -22.5380 -22.5205 -22.5092  -6.9151  -6.0994  -6.0772  -5.0478
    -5.0285  -5.0183  -4.9300  -4.8762   3.6944   6.7729   7.0475   7.2610
     8.2038   8.4932   8.8845   9.3243   9.3818   9.7543  12.6990  13.1769
    13.3469  14.7995

          k = 0.0500 0.1500 0.3500 (  5080 PWs)   bands (ev):

   -46.2701 -22.5550 -22.5199 -22.5085  -6.7732  -6.0513  -6.0242  -5.0685
    -5.0347  -5.0180  -4.9602  -4.8715   3.4488   6.4471   7.1146   7.3250
     7.9100   8.2434   8.8799   9.3348   9.3873  10.0457  12.6939  13.6115
    13.7346  14.4998

          k = 0.0500 0.1500 0.4500 (  5079 PWs)   bands (ev):

   -46.2699 -22.5655 -22.5194 -22.5081  -6.6845  -6.0130  -5.9952  -5.0860
    -5.0406  -5.0176  -4.9715  -4.8723   3.3183   6.1347   7.2186   7.4645
     7.7661   7.9507   8.9660   9.3143   9.4142  10.2721  12.6815  13.8692
    13.9720  14.0146

          k = 0.0500 0.2500 0.2500 (  5076 PWs)   bands (ev):

   -46.2701 -22.5377 -22.5371 -22.5085  -6.7922  -6.0739  -6.0201  -5.0525
    -5.0322  -5.0234  -4.9024  -4.8940   3.4773   6.7117   7.0294   7.2063
     7.9945   8.1461   8.7062   9.0942   9.5899   9.8457  13.1343  13.2112
    13.6397  14.9294

          k = 0.0500 0.2500 0.3500 (  5080 PWs)   bands (ev):

   -46.2698 -22.5542 -22.5369 -22.5079  -6.6786  -6.0291  -5.9627  -5.0613
    -5.0349  -5.0261  -4.9153  -4.8746   3.2811   6.4484   6.8976   7.2684
     7.7809   8.0945   8.5078   9.0487   9.6679   9.9231  13.1610  13.6098
    13.9448  14.7485

          k = 0.0500 0.2500 0.4500 (  5084 PWs)   bands (ev):

   -46.2696 -22.5647 -22.5364 -22.5075  -6.6160  -5.9834  -5.9312  -5.0708
    -5.0389  -5.0287  -4.9093  -4.8720   3.1707   6.1461   6.9548   7.2164
     7.7781   8.0317   8.4256   9.0777   9.6265   9.9803  13.1531  13.8678
    14.1444  14.5908

          k = 0.0500 0.3500 0.3500 (  5079 PWs)   bands (ev):

   -46.2695 -22.5539 -22.5534 -22.5072  -6.6102  -5.9672  -5.8982  -5.0582
    -5.0392  -5.0267  -4.9356  -4.8210   3.1205   6.4241   6.4955   7.3204
     7.6598   7.9552   8.4445   8.8068   9.6255   9.9727  13.5704  13.6325
    14.1744  14.9808

          k = 0.0500 0.3500 0.4500 (  5079 PWs)   bands (ev):

   -46.2693 -22.5638 -22.5533 -22.5068  -6.5831  -5.9022  -5.8610  -5.0613
    -5.0386  -5.0329  -4.9452  -4.7883   3.0255   6.1357   6.5020   7.2791
     7.6017   8.0921   8.2837   8.7594   9.4003  10.1078  13.5972  13.8653
    14.3397  15.1027

          k = 0.0500 0.4500 0.4500 (  5100 PWs)   bands (ev):

   -46.2690 -22.5637 -22.5633 -22.5064  -6.5780  -5.8274  -5.8152  -5.0612
    -5.0373  -5.0341  -4.9682  -4.7398   2.9374   6.0346   6.3161   7.3706
     7.4122   8.2014   8.3066   8.5465   9.0976  10.2729  13.8585  13.8683
    14.4824  15.3347

          k = 0.1500 0.1500 0.1500 (  5095 PWs)   bands (ev):

   -46.2706 -22.5209 -22.5204 -22.5203  -6.9711  -6.1129  -6.1122  -5.0350
    -5.0350  -5.0153  -4.8894  -4.8894   3.8386   6.8287   6.8289   7.4654
     8.3591   8.3598   9.2869   9.2911   9.3943   9.3973  12.9349  12.9480
    12.9482  15.2830

          k = 0.1500 0.1500 0.2500 (  5084 PWs)   bands (ev):

   -46.2703 -22.5375 -22.5202 -22.5197  -6.8358  -6.0826  -6.0650  -5.0544
    -5.0338  -5.0106  -4.9071  -4.8760   3.6103   6.7470   6.8359   7.3122
     8.0250   8.1669   8.9894   9.3711   9.4644   9.6131  12.9162  13.3191
    13.3347  15.1732

          k = 0.1500 0.1500 0.3500 (  5082 PWs)   bands (ev):

   -46.2699 -22.5545 -22.5195 -22.5191  -6.7004  -6.0513  -6.0125  -5.0695
    -5.0280  -5.0013  -4.9302  -4.8710   3.4056   6.4502   6.8324   7.1926
     7.7919   8.2249   8.6810   9.4289   9.4790   9.8823  12.8554  13.6975
    13.7041  14.6627

          k = 0.1500 0.1500 0.4500 (  5084 PWs)   bands (ev):

   -46.2697 -22.5650 -22.5191 -22.5186  -6.6178  -6.0313  -5.9760  -5.0763
    -5.0241  -4.9897  -4.9478  -4.8738   3.2919   6.1415   6.8228   7.2583
     7.6793   8.2954   8.4971   9.4630   9.4719  10.0162  12.7943  13.9291
    13.9437  14.4312

          k = 0.1500 0.2500 0.2500 (  5081 PWs)   bands (ev):

   -46.2699 -22.5373 -22.5367 -22.5191  -6.7112  -6.0647  -6.0280  -5.0558
    -5.0399  -4.9970  -4.8804  -4.8771   3.4668   6.6488   6.7595   7.1150
     7.6748   7.8932   9.1406   9.1753   9.6209   9.6506  13.2091  13.3209
    13.5808  14.9361

          k = 0.1500 0.2500 0.3500 (  5080 PWs)   bands (ev):

   -46.2696 -22.5538 -22.5365 -22.5184  -6.5969  -6.0426  -5.9794  -5.0596
    -5.0325  -4.9801  -4.8860  -4.8592   3.3215   6.4401   6.6723   6.8592
     7.4553   7.9147   8.8592   9.2852   9.6283   9.7648  13.1663  13.6382
    13.8596  14.8943

          k = 0.1500 0.2500 0.4500 (  5077 PWs)   bands (ev):

   -46.2694 -22.5642 -22.5360 -22.5180  -6.5348  -6.0248  -5.9417  -5.0601
    -5.0259  -4.9675  -4.8853  -4.8579   3.2342   6.1491   6.5992   6.8520
     7.4031   8.0070   8.6490   9.3562   9.5383   9.8214  13.1280  13.8745
    14.0612  14.9763

          k = 0.1500 0.3500 0.3500 (  5081 PWs)   bands (ev):

   -46.2693 -22.5534 -22.5529 -22.5178  -6.5225  -6.0004  -5.9408  -5.0531
    -5.0229  -4.9628  -4.8924  -4.8057   3.2240   6.4188   6.4415   6.6549
     7.0610   7.8813   8.9028   9.1061   9.4001   9.9768  13.4784  13.6478
    14.0567  15.1701

          k = 0.1500 0.3500 0.4500 (  5079 PWs)   bands (ev):

   -46.2690 -22.5634 -22.5529 -22.5173  -6.4946  -5.9611  -5.9074  -5.0500
    -5.0100  -4.9522  -4.9024  -4.7730   3.1593   6.1331   6.4531   6.5827
     6.9614   7.9236   8.7163   9.1266   9.2158  10.1002  13.5358  13.8315
    14.2166  15.4526

          k = 0.1500 0.4500 0.4500 (  5073 PWs)   bands (ev):

   -46.2688 -22.5633 -22.5629 -22.5169  -6.4896  -5.8967  -5.8858  -5.0456
    -4.9859  -4.9407  -4.9255  -4.7236   3.1056   6.0271   6.3082   6.6426
     6.7004   7.9365   8.5207   9.0546   9.0764  10.2673  13.7978  13.8255
    14.3462  15.7673

          k = 0.2500 0.2500 0.2500 (  5070 PWs)   bands (ev):

   -46.2696 -22.5367 -22.5361 -22.5359  -6.5858  -6.0414  -6.0408  -5.0442
    -5.0442  -4.9661  -4.8527  -4.8526   3.4308   6.4980   6.4983   7.0651
     7.3672   7.3678   9.2565   9.4673   9.4678   9.7043  13.2540  13.5501
    13.5502  14.9343

          k = 0.2500 0.2500 0.3500 (  5072 PWs)   bands (ev):

   -46.2693 -22.5530 -22.5358 -22.5353  -6.4752  -6.0546  -5.9977  -5.0424
    -5.0270  -4.9281  -4.8377  -4.8306   3.3731   6.3045   6.3790   6.6221
     7.2297   7.2938   8.9324   9.5374   9.5725   9.8148  13.2575  13.6875
    13.8386  15.1442

          k = 0.2500 0.2500 0.4500 (  5073 PWs)   bands (ev):

   -46.2690 -22.5634 -22.5354 -22.5349  -6.4192  -6.0630  -5.9562  -5.0392
    -5.0160  -4.8871  -4.8449  -4.8191   3.3293   6.1502   6.1777   6.5111
     7.1871   7.3487   8.6690   9.5150   9.6072   9.8695  13.2842  13.8544
    14.0442  15.4451

          k = 0.2500 0.3500 0.3500 (  5057 PWs)   bands (ev):

   -46.2689 -22.5527 -22.5522 -22.5347  -6.3838  -6.0423  -6.0014  -5.0293
    -5.0101  -4.8821  -4.8168  -4.7761   3.4016   6.1335   6.1894   6.4230
     6.7452   7.2181   8.4935   9.6327   9.6582   9.9877  13.4524  13.7548
    13.9814  15.4802

          k = 0.2500 0.3500 0.4500 (  5063 PWs)   bands (ev):

   -46.2687 -22.5627 -22.5522 -22.5343  -6.3525  -6.0389  -5.9706  -5.0240
    -4.9951  -4.8420  -4.8161  -4.7426   3.4055   6.0025   6.1295   6.1780
     6.6540   7.2229   8.1214   9.6399   9.6807  10.0989  13.5887  13.8495
    14.1391  15.8549

          k = 0.2500 0.4500 0.4500 (  5070 PWs)   bands (ev):

   -46.2685 -22.5626 -22.5622 -22.5339  -6.3453  -5.9872  -5.9777  -5.0180
    -4.9770  -4.8131  -4.8038  -4.6927   3.4372   5.9788   6.0395   6.0526
     6.3552   7.2183   7.6750   9.6763   9.6794  10.2584  13.8217  13.8668
    14.2534  16.1996

          k = 0.3500 0.3500 0.3500 (  5055 PWs)   bands (ev):

   -46.2686 -22.5520 -22.5516 -22.5515  -6.2665  -6.0548  -6.0543  -5.0026
    -5.0026  -4.8078  -4.7428  -4.7426   3.5874   5.8572   5.8577   6.3265
     6.6763   6.6766   7.8312   9.9151   9.9158  10.0351  13.6107  13.9595
    13.9595  15.8684

          k = 0.3500 0.3500 0.4500 (  5056 PWs)   bands (ev):

   -46.2684 -22.5620 -22.5515 -22.5511  -6.2280  -6.0849  -6.0250  -4.9989
    -4.9858  -4.7532  -4.7290  -4.6985   3.6999   5.6630   5.8059   6.0792
     6.5638   6.6629   7.3366   9.9625  10.0090  10.1295  13.7903  13.9650
    14.1330  16.2715

          k = 0.3500 0.4500 0.4500 (  5051 PWs)   bands (ev):

   -46.2682 -22.5619 -22.5615 -22.5507  -6.2003  -6.0614  -6.0534  -4.9901
    -4.9742  -4.7008  -4.6914  -4.6542   3.9097   5.5792   5.6112   5.9541
     6.3465   6.6179   6.7390  10.0684  10.0710  10.2497  13.9802  14.0296
    14.2078  16.6527

          k = 0.4500 0.4500 0.4500 (  5034 PWs)   bands (ev):

   -46.2680 -22.5615 -22.5611 -22.5611  -6.1183  -6.0949  -6.0944  -4.9729
    -4.9728  -4.6356  -4.6264  -4.6262   4.4036   5.3816   5.3820   5.8428
     5.9545   6.3474   6.3480  10.2370  10.2375  10.2515  14.1429  14.1882
    14.1882  17.0222

          k =-0.0500 0.1500 0.0500 (  5074 PWs)   bands (ev):

   -46.2710 -22.5216 -22.5102 -22.5102  -7.1380  -6.1635  -6.1631  -5.0218
    -5.0196  -5.0123  -4.9049  -4.8666   4.2067   6.8673   6.8972   7.1635
     8.8549   8.8993   9.2087   9.2949   9.5373   9.5452  12.3666  12.6988
    12.7005  14.4775

          k =-0.0500 0.2500 0.0500 (  5093 PWs)   bands (ev):

   -46.2707 -22.5388 -22.5096 -22.5095  -6.9930  -6.1129  -6.1082  -5.0379
    -5.0296  -5.0114  -4.9613  -4.8600   3.8391   6.8533   7.0271   7.1525
     8.5108   8.5780   9.1511   9.2529   9.5553   9.6497  12.3696  13.1731
    13.1805  14.4777

          k =-0.0500 0.3500 0.0500 (  5090 PWs)   bands (ev):

   -46.2703 -22.5559 -22.5089 -22.5089  -6.8405  -6.0637  -6.0468  -5.0634
    -5.0385  -5.0146  -5.0104  -4.8555   3.5549   6.4523   7.1994   7.2974
     8.1651   8.2199   9.0827   9.4080   9.5981  10.0240  12.3714  13.6092
    13.6171  14.3392

          k =-0.0500 0.4500 0.0500 (  5073 PWs)   bands (ev):

   -46.2701 -22.5664 -22.5086 -22.5085  -6.7417  -6.0346  -6.0045  -5.0946
    -5.0434  -5.0365  -5.0099  -4.8539   3.4099   6.1261   7.3711   7.5354
     7.8882   7.9010   9.0396   9.4847   9.6306  10.4629  12.3697  13.6081
    13.8684  13.8745

          k = 0.1500 0.0500 0.1500 (  5079 PWs)   bands (ev):

   -46.2708 -22.5210 -22.5207 -22.5102  -7.0540  -6.1405  -6.1303  -5.0317
    -5.0210  -5.0179  -4.9016  -4.8810   3.9904   6.8209   6.9514   7.3318
     8.5369   8.7321   9.0966   9.3362   9.3778   9.5636  12.6766  12.7232
    12.9493  14.7361

          k =-0.0500 0.2500 0.1500 (  5077 PWs)   bands (ev):

   -46.2705 -22.5383 -22.5202 -22.5092  -6.9149  -6.0993  -6.0773  -5.0478
    -5.0285  -5.0184  -4.9300  -4.8763   3.6944   6.7727   7.0472   7.2610
     8.2032   8.4929   8.8843   9.3256   9.3822   9.7545  12.6971  13.1783
    13.3473  14.7991

          k = 0.2500 0.0500 0.1500 (  5077 PWs)   bands (ev):

   -46.2705 -22.5380 -22.5202 -22.5095  -6.9152  -6.0997  -6.0768  -5.0478
    -5.0285  -5.0183  -4.9301  -4.8762   3.6945   6.7730   7.0476   7.2610
     8.2038   8.4924   8.8849   9.3247   9.3826   9.7538  12.6980  13.1772
    13.3466  14.8002

          k =-0.0500 0.3500 0.1500 (  5080 PWs)   bands (ev):

   -46.2701 -22.5554 -22.5195 -22.5085  -6.7729  -6.0512  -6.0244  -5.0685
    -5.0347  -5.0180  -4.9602  -4.8715   3.4487   6.4465   7.1139   7.3247
     7.9097   8.2428   8.8806   9.3351   9.3889  10.0462  12.6920  13.6127
    13.7349  14.5003

          k = 0.3500 0.0500 0.1500 (  5080 PWs)   bands (ev):

   -46.2701 -22.5550 -22.5195 -22.5089  -6.7734  -6.0515  -6.0239  -5.0685
    -5.0347  -5.0180  -4.9603  -4.8715   3.4489   6.4471   7.1143   7.3252
     7.9098   8.2438   8.8785   9.3350   9.3892  10.0454  12.6929  13.6117
    13.7343  14.5003

          k =-0.0500 0.4500 0.1500 (  5079 PWs)   bands (ev):

   -46.2699 -22.5659 -22.5191 -22.5081  -6.6841  -6.0126  -5.9958  -5.0861
    -5.0405  -5.0177  -4.9715  -4.8723   3.3181   6.1341   7.2171   7.4644
     7.7657   7.9508   8.9670   9.3142   9.4161  10.2729  12.6797  13.8703
    13.9716  14.0157

          k = 0.4500 0.0500 0.1500 (  5079 PWs)   bands (ev):

   -46.2699 -22.5655 -22.5191 -22.5085  -6.6847  -6.0129  -5.9951  -5.0860
    -5.0405  -5.0176  -4.9716  -4.8723   3.3183   6.1347   7.2182   7.4645
     7.7663   7.9512   8.9640   9.3142   9.4166  10.2723  12.6805  13.8696
    13.9716  14.0148

          k = 0.2500 0.0500 0.2500 (  5076 PWs)   bands (ev):

   -46.2701 -22.5375 -22.5370 -22.5089  -6.7925  -6.0741  -6.0196  -5.0524
    -5.0322  -5.0234  -4.9024  -4.8941   3.4774   6.7122   7.0290   7.2067
     7.9944   8.1446   8.7080   9.0943   9.5907   9.8447  13.1336  13.2109
    13.6394  14.9302

          k =-0.0500 0.3500 0.2500 (  5080 PWs)   bands (ev):

   -46.2698 -22.5546 -22.5365 -22.5079  -6.6784  -6.0289  -5.9629  -5.0613
    -5.0349  -5.0261  -4.9153  -4.8746   3.2810   6.4477   6.8979   7.2679
     7.7811   8.0943   8.5075   9.0500   9.6674   9.9239  13.1595  13.6110
    13.9448  14.7489

          k = 0.3500 0.0500 0.2500 (  5080 PWs)   bands (ev):

   -46.2698 -22.5542 -22.5365 -22.5082  -6.6790  -6.0290  -5.9623  -5.0613
    -5.0349  -5.0261  -4.9153  -4.8747   3.2812   6.4487   6.8975   7.2684
     7.7807   8.0938   8.5081   9.0501   9.6680   9.9231  13.1597  13.6101
    13.9444  14.7490

          k =-0.0500 0.4500 0.2500 (  5084 PWs)   bands (ev):

   -46.2696 -22.5650 -22.5361 -22.5075  -6.6158  -5.9828  -5.9320  -5.0709
    -5.0389  -5.0287  -4.9094  -4.8720   3.1706   6.1453   6.9549   7.2159
     7.7786   8.0309   8.4258   9.0791   9.6258   9.9815  13.1516  13.8690
    14.1442  14.5915

          k = 0.4500 0.0500 0.2500 (  5084 PWs)   bands (ev):

   -46.2696 -22.5647 -22.5361 -22.5078  -6.6166  -5.9829  -5.9312  -5.0708
    -5.0389  -5.0287  -4.9094  -4.8722   3.1708   6.1461   6.9550   7.2158
     7.7786   8.0319   8.4241   9.0795   9.6261   9.9812  13.1517  13.8682
    14.1440  14.5911

          k = 0.3500 0.0500 0.3500 (  5079 PWs)   bands (ev):

   -46.2695 -22.5536 -22.5533 -22.5076  -6.6110  -5.9669  -5.8977  -5.0581
    -5.0392  -5.0266  -4.9356  -4.8212   3.1206   6.4260   6.4942   7.3202
     7.6586   7.9553   8.4458   8.8070   9.6253   9.9733  13.5698  13.6322
    14.1741  14.9808

          k =-0.0500 0.4500 0.3500 (  5079 PWs)   bands (ev):

   -46.2693 -22.5642 -22.5529 -22.5068  -6.5830  -5.9016  -5.8616  -5.0614
    -5.0386  -5.0329  -4.9452  -4.7882   3.0255   6.1348   6.5027   7.2786
     7.6025   8.0911   8.2839   8.7602   9.4002  10.1081  13.5958  13.8666
    14.3395  15.1033

          k = 0.4500 0.0500 0.3500 (  5079 PWs)   bands (ev):

   -46.2693 -22.5638 -22.5529 -22.5072  -6.5839  -5.9015  -5.8609  -5.0613
    -5.0385  -5.0329  -4.9452  -4.7885   3.0257   6.1357   6.5026   7.2782
     7.6012   8.0921   8.2842   8.7603   9.4002  10.1086  13.5960  13.8658
    14.3392  15.1029

          k = 0.4500 0.0500 0.4500 (  5100 PWs)   bands (ev):

   -46.2690 -22.5634 -22.5633 -22.5068  -6.5788  -5.8269  -5.8147  -5.0611
    -5.0373  -5.0341  -4.9683  -4.7401   2.9376   6.0349   6.3167   7.3696
     7.4110   8.2023   8.3076   8.5461   9.0980  10.2737  13.8583  13.8681
    14.4819  15.3343

          k =-0.1500 0.2500 0.1500 (  5084 PWs)   bands (ev):

   -46.2703 -22.5379 -22.5199 -22.5196  -6.8356  -6.0821  -6.0656  -5.0544
    -5.0338  -5.0106  -4.9071  -4.8761   3.6103   6.7469   6.8355   7.3123
     8.0249   8.1671   8.9880   9.3726   9.4645   9.6131  12.9152  13.3201
    13.3349  15.1734

          k =-0.1500 0.3500 0.1500 (  5082 PWs)   bands (ev):

   -46.2699 -22.5549 -22.5192 -22.5190  -6.7001  -6.0508  -6.0132  -5.0696
    -5.0280  -5.0013  -4.9302  -4.8710   3.4054   6.4497   6.8316   7.1927
     7.7924   8.2248   8.6804   9.4297   9.4793   9.8828  12.8545  13.7011
    13.7017  14.6630

          k =-0.1500 0.4500 0.1500 (  5084 PWs)   bands (ev):

   -46.2697 -22.5654 -22.5187 -22.5186  -6.6173  -6.0308  -5.9768  -5.0764
    -5.0242  -4.9896  -4.9477  -4.8739   3.2917   6.1408   6.8217   7.2584
     7.6800   8.2940   8.4980   9.4620   9.4739  10.0168  12.7934  13.9305
    13.9433  14.4316

          k = 0.2500 0.1500 0.2500 (  5081 PWs)   bands (ev):

   -46.2699 -22.5370 -22.5366 -22.5194  -6.7115  -6.0650  -6.0276  -5.0558
    -5.0398  -4.9970  -4.8804  -4.8772   3.4669   6.6490   6.7597   7.1150
     7.6747   7.8930   9.1414   9.1755   9.6221   9.6487  13.2091  13.3207
    13.5804  14.9362

          k =-0.1500 0.3500 0.2500 (  5080 PWs)   bands (ev):

   -46.2696 -22.5541 -22.5361 -22.5184  -6.5967  -6.0422  -5.9799  -5.0596
    -5.0325  -4.9800  -4.8860  -4.8593   3.3215   6.4396   6.6718   6.8594
     7.4563   7.9145   8.8579   9.2866   9.6280   9.7653  13.1654  13.6391
    13.8596  14.8945

          k = 0.3500 0.1500 0.2500 (  5080 PWs)   bands (ev):

   -46.2696 -22.5538 -22.5361 -22.5188  -6.5972  -6.0425  -5.9792  -5.0596
    -5.0325  -4.9800  -4.8860  -4.8594   3.3216   6.4403   6.6722   6.8591
     7.4557   7.9142   8.8591   9.2861   9.6275   9.7654  13.1658  13.6385
    13.8593  14.8944

          k =-0.1500 0.4500 0.2500 (  5077 PWs)   bands (ev):

   -46.2694 -22.5646 -22.5356 -22.5180  -6.5345  -6.0242  -5.9425  -5.0601
    -5.0260  -4.9674  -4.8854  -4.8579   3.2341   6.1483   6.5982   6.8525
     7.4044   8.0067   8.6478   9.3574   9.5382   9.8219  13.1270  13.8754
    14.0611  14.9767

          k = 0.4500 0.1500 0.2500 (  5077 PWs)   bands (ev):

   -46.2694 -22.5642 -22.5356 -22.5184  -6.5352  -6.0244  -5.9417  -5.0600
    -5.0259  -4.9674  -4.8853  -4.8581   3.2343   6.1491   6.5989   6.8521
     7.4037   8.0063   8.6490   9.3568   9.5376   9.8223  13.1274  13.8748
    14.0609  14.9764

          k = 0.3500 0.1500 0.3500 (  5081 PWs)   bands (ev):

   -46.2693 -22.5531 -22.5529 -22.5181  -6.5232  -6.0002  -5.9403  -5.0531
    -5.0229  -4.9627  -4.8924  -4.8059   3.2241   6.4258   6.4348   6.6548
     7.0609   7.8809   8.9033   9.1064   9.3995   9.9774  13.4782  13.6476
    14.0565  15.1700

          k =-0.1500 0.4500 0.3500 (  5079 PWs)   bands (ev):

   -46.2690 -22.5638 -22.5525 -22.5173  -6.4945  -5.9604  -5.9082  -5.0500
    -5.0100  -4.9521  -4.9025  -4.7730   3.1593   6.1322   6.4538   6.5821
     6.9622   7.9234   8.7156   9.1268   9.2165  10.1002  13.5349  13.8324
    14.2165  15.4529

          k = 0.4500 0.1500 0.3500 (  5079 PWs)   bands (ev):

   -46.2690 -22.5634 -22.5525 -22.5177  -6.4954  -5.9604  -5.9074  -5.0500
    -5.0100  -4.9520  -4.9024  -4.7733   3.1595   6.1332   6.4536   6.5822
     6.9616   7.9231   8.7165   9.1267   9.2160  10.1009  13.5352  13.8318
    14.2163  15.4527

          k = 0.4500 0.1500 0.4500 (  5073 PWs)   bands (ev):

   -46.2688 -22.5629 -22.5629 -22.5173  -6.4905  -5.8963  -5.8854  -5.0455
    -4.9859  -4.9406  -4.9255  -4.7239   3.1058   6.0275   6.3089   6.6421
     6.6999   7.9360   8.5211   9.0548   9.0765  10.2681  13.7978  13.8253
    14.3459  15.7671

          k =-0.2500 0.3500 0.2500 (  5072 PWs)   bands (ev):

   -46.2693 -22.5534 -22.5355 -22.5353  -6.4749  -6.0541  -5.9984  -5.0425
    -5.0270  -4.9281  -4.8378  -4.8305   3.3731   6.3040   6.3789   6.6220
     7.2325   7.2917   8.9318   9.5374   9.5731   9.8145  13.2571  13.6880
    13.8386  15.1443

          k =-0.2500 0.4500 0.2500 (  5073 PWs)   bands (ev):

   -46.2690 -22.5638 -22.5351 -22.5349  -6.4187  -6.0625  -5.9571  -5.0392
    -5.0160  -4.8870  -4.8450  -4.8189   3.3292   6.1496   6.1768   6.5117
     7.1891   7.3475   8.6684   9.5148   9.6081   9.8692  13.2837  13.8551
    14.0442  15.4453

          k = 0.3500 0.2500 0.3500 (  5057 PWs)   bands (ev):

   -46.2689 -22.5524 -22.5522 -22.5351  -6.3843  -6.0422  -6.0010  -5.0293
    -5.0101  -4.8821  -4.8167  -4.7763   3.4017   6.1337   6.1893   6.4229
     6.7456   7.2176   8.4937   9.6329   9.6578   9.9883  13.4524  13.7547
    13.9813  15.4802

          k =-0.2500 0.4500 0.3500 (  5063 PWs)   bands (ev):

   -46.2687 -22.5630 -22.5518 -22.5343  -6.3524  -6.0382  -5.9714  -5.0241
    -4.9952  -4.8420  -4.8161  -4.7426   3.4054   6.0016   6.1294   6.1785
     6.6548   7.2226   8.1213   9.6390   9.6816  10.0988  13.5882  13.8501
    14.1391  15.8549

          k = 0.4500 0.2500 0.3500 (  5063 PWs)   bands (ev):

   -46.2687 -22.5627 -22.5518 -22.5347  -6.3531  -6.0383  -5.9706  -5.0240
    -4.9952  -4.8419  -4.8160  -4.7429   3.4056   6.0023   6.1299   6.1778
     6.6546   7.2222   8.1215   9.6394   9.6809  10.0995  13.5885  13.8497
    14.1389  15.8548

          k = 0.4500 0.2500 0.4500 (  5070 PWs)   bands (ev):

   -46.2685 -22.5622 -22.5622 -22.5342  -6.3461  -5.9868  -5.9773  -5.0179
    -4.9771  -4.8130  -4.8037  -4.6930   3.4374   5.9792   6.0408   6.0509
     6.3556   7.2177   7.6753   9.6763   9.6792  10.2591  13.8217  13.8666
    14.2532  16.1995

          k =-0.3500 0.4500 0.3500 (  5056 PWs)   bands (ev):

   -46.2684 -22.5623 -22.5512 -22.5511  -6.2276  -6.0845  -6.0258  -4.9989
    -4.9858  -4.7534  -4.7291  -4.6984   3.6998   5.6625   5.8065   6.0788
     6.5642   6.6628   7.3365   9.9633  10.0085  10.1291  13.7901  13.9654
    14.1330  16.2715

          k = 0.4500 0.3500 0.4500 (  5051 PWs)   bands (ev):

   -46.2682 -22.5615 -22.5615 -22.5511  -6.2010  -6.0611  -6.0530  -4.9900
    -4.9742  -4.7007  -4.6912  -4.6545   3.9098   5.5792   5.6110   5.9543
     6.3470   6.6173   6.7392  10.0682  10.0706  10.2505  13.9803  14.0296
    14.2077  16.6527

     the Fermi energy is    10.4291 ev

!    total energy              =    -364.95739907 Ry
     Harris-Foulkes estimate   =    -364.95739907 Ry
     estimated scf accuracy    <          4.6E-09 Ry

     The total energy is the sum of the following terms:

     one-electron contribution =     -82.63930891 Ry
     hartree contribution      =      70.68013936 Ry
     xc contribution           =     -85.79433347 Ry
     ewald contribution        =    -267.21008512 Ry
     smearing contrib. (-TS)   =       0.00618908 Ry

     convergence has been achieved in  13 iterations

     Forces acting on atoms (Ry/au):

     atom    1 type  1   force =     0.00000000   -0.00113372    0.00000000
     atom    2 type  2   force =     0.00000000   -0.00020865    0.00000000
     atom    3 type  3   force =     0.00000000    0.00003845    0.00000000
     atom    4 type  3   force =     0.00000000    0.00126546    0.00000000
     atom    5 type  3   force =     0.00000000    0.00003845    0.00000000

     Total force =     0.001267     Total SCF correction =     0.000005


     entering subroutine stress ...

          total   stress  (Ry/bohr**3)                   (kbar)     P=   -2.37
  -0.00001647   0.00000000   0.00000000         -2.42      0.00      0.00
   0.00000000  -0.00001548   0.00000000          0.00     -2.28      0.00
   0.00000000   0.00000000  -0.00001647          0.00      0.00     -2.42


     BFGS Geometry Optimization

     number of scf cycles    =   1
     number of bfgs steps    =   0

     energy   new            =    -364.9573990650 Ry

     new trust radius        =       0.0012654582 bohr
     new conv_thr            =       0.0000000100 Ry


ATOMIC_POSITIONS (crystal)
Pb       0.000000000   0.000000000   0.000000000    0   0   0
Ti       0.500000000   0.497000000   0.500000000    0   0   0
O        0.500000000   0.500005134   0.000000000
O        0.500000000   0.000168953   0.500000000
O        0.000000000   0.500005134   0.500000000



     Writing output data file PbTiO3.save
     NEW-OLD atomic charge density approx. for the potential

     Check: negative/imaginary core charge=   -0.000006    0.000000

     total cpu time spent up to now is      661.2 secs

     per-process dynamical memory:   237.5 Mb

     Self-consistent Calculation

     iteration #  1     ecut=    80.00 Ry     beta=0.70
     Davidson diagonalization with overlap
     ethr =  1.00E-06,  avg # of iterations =  2.0

     Threshold (ethr) on eigenvalues was too large:
     Diagonalizing with lowered threshold

     Davidson diagonalization with overlap
     ethr =  7.36E-10,  avg # of iterations =  3.4

     total cpu time spent up to now is      748.5 secs

     total energy              =    -364.95740046 Ry
     Harris-Foulkes estimate   =    -364.95740068 Ry
     estimated scf accuracy    <       0.00000033 Ry

     iteration #  2     ecut=    80.00 Ry     beta=0.70
     Davidson diagonalization with overlap
     ethr =  7.51E-10,  avg # of iterations =  3.3

     total cpu time spent up to now is      795.6 secs

     total energy              =    -364.95740042 Ry
     Harris-Foulkes estimate   =    -364.95740066 Ry
     estimated scf accuracy    <       0.00000052 Ry

     iteration #  3     ecut=    80.00 Ry     beta=0.70
     Davidson diagonalization with overlap
     ethr =  7.51E-10,  avg # of iterations =  3.2

     total cpu time spent up to now is      839.1 secs

     total energy              =    -364.95740054 Ry
     Harris-Foulkes estimate   =    -364.95740059 Ry
     estimated scf accuracy    <       0.00000016 Ry

     iteration #  4     ecut=    80.00 Ry     beta=0.70
     Davidson diagonalization with overlap
     ethr =  3.60E-10,  avg # of iterations =  2.8

     total cpu time spent up to now is      876.0 secs

     End of self-consistent calculation

          k = 0.0500 0.0500 0.0500 (  5047 PWs)   bands (ev):

   -46.2712 -22.5110 -22.5106 -22.5105  -7.2246  -6.1951  -6.1944  -5.0129
    -5.0128  -5.0124  -4.8714  -4.8713   4.5044   6.8275   6.8278   6.9713
     9.0969   9.0970   9.2117   9.5569   9.5612   9.5980  12.3597  12.3697
    12.3711  14.4777

          k = 0.0500 0.0500 0.1500 (  5074 PWs)   bands (ev):

   -46.2710 -22.5212 -22.5106 -22.5102  -7.1381  -6.1636  -6.1628  -5.0217
    -5.0194  -5.0120  -4.9048  -4.8664   4.2068   6.8675   6.8975   7.1635
     8.8553   8.8996   9.2086   9.2963   9.5263   9.5538  12.3690  12.6970
    12.6997  14.4787

          k = 0.0500 0.0500 0.2500 (  5093 PWs)   bands (ev):

   -46.2707 -22.5384 -22.5099 -22.5096  -6.9931  -6.1123  -6.1087  -5.0377
    -5.0295  -5.0111  -4.9611  -4.8598   3.8392   6.8536   7.0276   7.1529
     8.5115   8.5791   9.1509   9.2526   9.5522   9.6498  12.3720  13.1718
    13.1794  14.4789

          k = 0.0500 0.0500 0.3500 (  5090 PWs)   bands (ev):

   -46.2703 -22.5555 -22.5093 -22.5089  -6.8408  -6.0629  -6.0473  -5.0632
    -5.0384  -5.0145  -5.0102  -4.8553   3.5551   6.4527   7.2003   7.2982
     8.1655   8.2209   9.0825   9.4058   9.5967  10.0234  12.3738  13.6081
    13.6162  14.3389

          k = 0.0500 0.0500 0.4500 (  5073 PWs)   bands (ev):

   -46.2701 -22.5660 -22.5089 -22.5085  -6.7422  -6.0337  -6.0050  -5.0944
    -5.0433  -5.0364  -5.0096  -4.8537   3.4101   6.1266   7.3727   7.5372
     7.8880   7.9008   9.0394   9.4817   9.6296  10.4623  12.3721  13.6078
    13.8676  13.8737

          k = 0.0500 0.1500 0.1500 (  5079 PWs)   bands (ev):

   -46.2708 -22.5213 -22.5208 -22.5098  -7.0539  -6.1400  -6.1307  -5.0314
    -5.0209  -5.0177  -4.9013  -4.8809   3.9904   6.8210   6.9511   7.3319
     8.5360   8.7338   9.0947   9.3355   9.3802   9.5629  12.6766  12.7232
    12.9502  14.7351

          k = 0.0500 0.1500 0.2500 (  5077 PWs)   bands (ev):

   -46.2705 -22.5380 -22.5205 -22.5092  -6.9150  -6.0993  -6.0772  -5.0476
    -5.0284  -5.0181  -4.9299  -4.8761   3.6945   6.7730   7.0475   7.2611
     8.2038   8.4932   8.8846   9.3242   9.3818   9.7544  12.6991  13.1769
    13.3470  14.7996

          k = 0.0500 0.1500 0.3500 (  5080 PWs)   bands (ev):

   -46.2701 -22.5550 -22.5199 -22.5085  -6.7731  -6.0513  -6.0241  -5.0684
    -5.0346  -5.0178  -4.9601  -4.8713   3.4488   6.4471   7.1146   7.3250
     7.9101   8.2435   8.8799   9.3348   9.3873  10.0457  12.6940  13.6115
    13.7347  14.4998

          k = 0.0500 0.1500 0.4500 (  5079 PWs)   bands (ev):

   -46.2699 -22.5655 -22.5195 -22.5081  -6.6844  -6.0130  -5.9951  -5.0859
    -5.0404  -5.0175  -4.9713  -4.8721   3.3183   6.1347   7.2186   7.4646
     7.7662   7.9508   8.9660   9.3143   9.4141  10.2721  12.6816  13.8692
    13.9721  14.0147

          k = 0.0500 0.2500 0.2500 (  5076 PWs)   bands (ev):

   -46.2701 -22.5377 -22.5371 -22.5085  -6.7922  -6.0738  -6.0200  -5.0523
    -5.0320  -5.0233  -4.9023  -4.8938   3.4773   6.7117   7.0295   7.2063
     7.9945   8.1461   8.7062   9.0943   9.5899   9.8458  13.1343  13.2112
    13.6398  14.9294

          k = 0.0500 0.2500 0.3500 (  5080 PWs)   bands (ev):

   -46.2698 -22.5542 -22.5369 -22.5079  -6.6785  -6.0291  -5.9626  -5.0612
    -5.0348  -5.0259  -4.9152  -4.8744   3.2811   6.4485   6.8976   7.2684
     7.7809   8.0945   8.5079   9.0487   9.6679   9.9231  13.1611  13.6098
    13.9448  14.7485

          k = 0.0500 0.2500 0.4500 (  5084 PWs)   bands (ev):

   -46.2696 -22.5647 -22.5364 -22.5075  -6.6160  -5.9834  -5.9312  -5.0707
    -5.0388  -5.0285  -4.9092  -4.8719   3.1707   6.1461   6.9548   7.2165
     7.7781   8.0318   8.4256   9.0776   9.6265   9.9803  13.1532  13.8678
    14.1445  14.5908

          k = 0.0500 0.3500 0.3500 (  5079 PWs)   bands (ev):

   -46.2694 -22.5539 -22.5534 -22.5072  -6.6102  -5.9671  -5.8981  -5.0580
    -5.0390  -5.0265  -4.9355  -4.8209   3.1205   6.4241   6.4956   7.3204
     7.6598   7.9553   8.4445   8.8069   9.6255   9.9728  13.5705  13.6325
    14.1745  14.9808

          k = 0.0500 0.3500 0.4500 (  5079 PWs)   bands (ev):

   -46.2692 -22.5638 -22.5533 -22.5068  -6.5830  -5.9022  -5.8609  -5.0612
    -5.0384  -5.0327  -4.9450  -4.7881   3.0255   6.1357   6.5019   7.2792
     7.6017   8.0922   8.2838   8.7594   9.4003  10.1078  13.5973  13.8653
    14.3397  15.1027

          k = 0.0500 0.4500 0.4500 (  5100 PWs)   bands (ev):

   -46.2690 -22.5637 -22.5633 -22.5064  -6.5779  -5.8274  -5.8151  -5.0610
    -5.0372  -5.0340  -4.9680  -4.7396   2.9374   6.0346   6.3161   7.3707
     7.4123   8.2014   8.3066   8.5465   9.0976  10.2729  13.8585  13.8683
    14.4825  15.3347

          k = 0.1500 0.1500 0.1500 (  5095 PWs)   bands (ev):

   -46.2706 -22.5209 -22.5204 -22.5203  -6.9710  -6.1128  -6.1121  -5.0349
    -5.0348  -5.0151  -4.8893  -4.8892   3.8387   6.8288   6.8290   7.4655
     8.3591   8.3598   9.2866   9.2912   9.3943   9.3975  12.9350  12.9480
    12.9483  15.2831

          k = 0.1500 0.1500 0.2500 (  5084 PWs)   bands (ev):

   -46.2703 -22.5375 -22.5202 -22.5197  -6.8358  -6.0825  -6.0649  -5.0542
    -5.0336  -5.0104  -4.9070  -4.8759   3.6104   6.7471   6.8359   7.3123
     8.0250   8.1669   8.9895   9.3710   9.4644   9.6131  12.9163  13.3192
    13.3347  15.1732

          k = 0.1500 0.1500 0.3500 (  5082 PWs)   bands (ev):

   -46.2699 -22.5545 -22.5195 -22.5191  -6.7004  -6.0513  -6.0124  -5.0694
    -5.0278  -5.0012  -4.9301  -4.8708   3.4056   6.4503   6.8324   7.1926
     7.7919   8.2249   8.6810   9.4289   9.4790   9.8823  12.8555  13.6976
    13.7041  14.6628

          k = 0.1500 0.1500 0.4500 (  5084 PWs)   bands (ev):

   -46.2697 -22.5650 -22.5191 -22.5186  -6.6178  -6.0313  -5.9759  -5.0761
    -5.0240  -4.9895  -4.9476  -4.8736   3.2919   6.1416   6.8228   7.2583
     7.6793   8.2954   8.4971   9.4630   9.4719  10.0162  12.7944  13.9291
    13.9438  14.4313

          k = 0.1500 0.2500 0.2500 (  5081 PWs)   bands (ev):

   -46.2699 -22.5373 -22.5367 -22.5191  -6.7112  -6.0646  -6.0280  -5.0556
    -5.0397  -4.9968  -4.8803  -4.8769   3.4668   6.6488   6.7595   7.1151
     7.6749   7.8932   9.1405   9.1754   9.6208   9.6508  13.2091  13.3209
    13.5808  14.9361

          k = 0.1500 0.2500 0.3500 (  5080 PWs)   bands (ev):

   -46.2696 -22.5538 -22.5365 -22.5184  -6.5968  -6.0426  -5.9793  -5.0594
    -5.0323  -4.9799  -4.8858  -4.8591   3.3216   6.4402   6.6724   6.8592
     7.4553   7.9148   8.8593   9.2851   9.6284   9.7648  13.1664  13.6382
    13.8596  14.8943

          k = 0.1500 0.2500 0.4500 (  5077 PWs)   bands (ev):

   -46.2694 -22.5642 -22.5360 -22.5180  -6.5347  -6.0248  -5.9416  -5.0599
    -5.0257  -4.9674  -4.8851  -4.8577   3.2342   6.1492   6.5992   6.8520
     7.4031   8.0071   8.6490   9.3561   9.5384   9.8214  13.1280  13.8745
    14.0613  14.9763

          k = 0.1500 0.3500 0.3500 (  5081 PWs)   bands (ev):

   -46.2692 -22.5534 -22.5529 -22.5178  -6.5224  -6.0004  -5.9407  -5.0530
    -5.0227  -4.9627  -4.8923  -4.8055   3.2240   6.4184   6.4419   6.6549
     7.0611   7.8814   8.9028   9.1061   9.4002   9.9768  13.4784  13.6479
    14.0568  15.1701

          k = 0.1500 0.3500 0.4500 (  5079 PWs)   bands (ev):

   -46.2690 -22.5634 -22.5529 -22.5173  -6.4945  -5.9611  -5.9074  -5.0499
    -5.0098  -4.9520  -4.9022  -4.7729   3.1593   6.1332   6.4531   6.5827
     6.9614   7.9237   8.7163   9.1266   9.2159  10.1002  13.5359  13.8315
    14.2167  15.4526

          k = 0.1500 0.4500 0.4500 (  5073 PWs)   bands (ev):

   -46.2688 -22.5633 -22.5629 -22.5169  -6.4895  -5.8967  -5.8858  -5.0454
    -4.9857  -4.9406  -4.9254  -4.7235   3.1056   6.0271   6.3082   6.6426
     6.7004   7.9366   8.5207   9.0546   9.0765  10.2673  13.7979  13.8255
    14.3463  15.7673

          k = 0.2500 0.2500 0.2500 (  5070 PWs)   bands (ev):

   -46.2696 -22.5367 -22.5361 -22.5359  -6.5858  -6.0413  -6.0407  -5.0440
    -5.0440  -4.9659  -4.8525  -4.8524   3.4308   6.4980   6.4984   7.0651
     7.3673   7.3679   9.2564   9.4674   9.4679   9.7043  13.2540  13.5502
    13.5502  14.9344

          k = 0.2500 0.2500 0.3500 (  5072 PWs)   bands (ev):

   -46.2692 -22.5530 -22.5358 -22.5353  -6.4751  -6.0545  -5.9977  -5.0423
    -5.0268  -4.9280  -4.8375  -4.8305   3.3732   6.3045   6.3791   6.6222
     7.2297   7.2939   8.9324   9.5374   9.5725   9.8148  13.2575  13.6875
    13.8386  15.1443

          k = 0.2500 0.2500 0.4500 (  5073 PWs)   bands (ev):

   -46.2690 -22.5634 -22.5354 -22.5349  -6.4191  -6.0629  -5.9561  -5.0390
    -5.0158  -4.8869  -4.8447  -4.8189   3.3293   6.1503   6.1777   6.5111
     7.1871   7.3488   8.6690   9.5150   9.6072   9.8696  13.2843  13.8545
    14.0442  15.4451

          k = 0.2500 0.3500 0.3500 (  5057 PWs)   bands (ev):

   -46.2689 -22.5527 -22.5522 -22.5347  -6.3837  -6.0422  -6.0013  -5.0292
    -5.0099  -4.8820  -4.8167  -4.7760   3.4016   6.1335   6.1894   6.4230
     6.7452   7.2182   8.4935   9.6328   9.6583   9.9878  13.4524  13.7549
    13.9815  15.4802

          k = 0.2500 0.3500 0.4500 (  5063 PWs)   bands (ev):

   -46.2687 -22.5627 -22.5522 -22.5343  -6.3524  -6.0389  -5.9705  -5.0239
    -4.9950  -4.8419  -4.8159  -4.7425   3.4055   6.0026   6.1295   6.1781
     6.6540   7.2230   8.1214   9.6400   9.6807  10.0989  13.5887  13.8495
    14.1391  15.8549

          k = 0.2500 0.4500 0.4500 (  5070 PWs)   bands (ev):

   -46.2685 -22.5626 -22.5622 -22.5339  -6.3452  -5.9871  -5.9777  -5.0178
    -4.9769  -4.8130  -4.8037  -4.6926   3.4372   5.9787   6.0393   6.0528
     6.3553   7.2184   7.6750   9.6763   9.6794  10.2584  13.8217  13.8668
    14.2534  16.1997

          k = 0.3500 0.3500 0.3500 (  5055 PWs)   bands (ev):

   -46.2686 -22.5520 -22.5516 -22.5515  -6.2665  -6.0548  -6.0542  -5.0025
    -5.0024  -4.8076  -4.7427  -4.7425   3.5874   5.8572   5.8577   6.3265
     6.6763   6.6767   7.8312   9.9151   9.9159  10.0351  13.6108  13.9596
    13.9596  15.8685

          k = 0.3500 0.3500 0.4500 (  5056 PWs)   bands (ev):

   -46.2684 -22.5620 -22.5515 -22.5511  -6.2279  -6.0848  -6.0249  -4.9987
    -4.9856  -4.7531  -4.7289  -4.6984   3.6999   5.6630   5.8059   6.0793
     6.5638   6.6629   7.3366   9.9625  10.0091  10.1295  13.7904  13.9651
    14.1330  16.2715

          k = 0.3500 0.4500 0.4500 (  5051 PWs)   bands (ev):

   -46.2682 -22.5619 -22.5615 -22.5507  -6.2002  -6.0614  -6.0533  -4.9899
    -4.9740  -4.7007  -4.6912  -4.6540   3.9097   5.5792   5.6113   5.9542
     6.3465   6.6180   6.7390  10.0684  10.0710  10.2497  13.9802  14.0296
    14.2078  16.6528

          k = 0.4500 0.4500 0.4500 (  5034 PWs)   bands (ev):

   -46.2679 -22.5615 -22.5611 -22.5611  -6.1182  -6.0949  -6.0943  -4.9727
    -4.9726  -4.6355  -4.6263  -4.6260   4.4036   5.3816   5.3820   5.8429
     5.9546   6.3474   6.3481  10.2370  10.2376  10.2515  14.1429  14.1882
    14.1882  17.0222

          k =-0.0500 0.1500 0.0500 (  5074 PWs)   bands (ev):

   -46.2710 -22.5216 -22.5102 -22.5102  -7.1380  -6.1635  -6.1630  -5.0217
    -5.0194  -5.0121  -4.9047  -4.8664   4.2067   6.8674   6.8972   7.1635
     8.8548   8.8992   9.2088   9.2948   9.5374   9.5453  12.3666  12.6989
    12.7006  14.4775

          k =-0.0500 0.2500 0.0500 (  5093 PWs)   bands (ev):

   -46.2707 -22.5388 -22.5096 -22.5095  -6.9929  -6.1129  -6.1081  -5.0377
    -5.0294  -5.0112  -4.9611  -4.8599   3.8391   6.8534   7.0271   7.1526
     8.5107   8.5780   9.1511   9.2530   9.5554   9.6498  12.3696  13.1732
    13.1806  14.4777

          k =-0.0500 0.3500 0.0500 (  5090 PWs)   bands (ev):

   -46.2703 -22.5559 -22.5089 -22.5089  -6.8404  -6.0637  -6.0467  -5.0632
    -5.0384  -5.0145  -5.0103  -4.8554   3.5549   6.4523   7.1994   7.2975
     8.1651   8.2198   9.0828   9.4081   9.5982  10.0241  12.3714  13.6093
    13.6172  14.3393

          k =-0.0500 0.4500 0.0500 (  5073 PWs)   bands (ev):

   -46.2701 -22.5664 -22.5086 -22.5085  -6.7417  -6.0346  -6.0044  -5.0945
    -5.0433  -5.0364  -5.0097  -4.8538   3.4099   6.1261   7.3711   7.5354
     7.8882   7.9010   9.0397   9.4848   9.6307  10.4630  12.3697  13.6081
    13.8684  13.8746

          k = 0.1500 0.0500 0.1500 (  5079 PWs)   bands (ev):

   -46.2708 -22.5210 -22.5207 -22.5102  -7.0539  -6.1405  -6.1302  -5.0315
    -5.0208  -5.0177  -4.9014  -4.8808   3.9904   6.8209   6.9515   7.3319
     8.5369   8.7320   9.0967   9.3362   9.3775   9.5638  12.6767  12.7233
    12.9493  14.7363

          k =-0.0500 0.2500 0.1500 (  5077 PWs)   bands (ev):

   -46.2705 -22.5383 -22.5202 -22.5092  -6.9149  -6.0993  -6.0773  -5.0476
    -5.0283  -5.0182  -4.9298  -4.8761   3.6944   6.7727   7.0472   7.2610
     8.2032   8.4929   8.8844   9.3256   9.3823   9.7546  12.6971  13.1784
    13.3474  14.7992

          k = 0.2500 0.0500 0.1500 (  5077 PWs)   bands (ev):

   -46.2705 -22.5380 -22.5202 -22.5095  -6.9151  -6.0996  -6.0767  -5.0476
    -5.0283  -5.0181  -4.9299  -4.8761   3.6945   6.7731   7.0476   7.2610
     8.2038   8.4924   8.8850   9.3246   9.3827   9.7539  12.6981  13.1773
    13.3466  14.8003

          k =-0.0500 0.3500 0.1500 (  5080 PWs)   bands (ev):

   -46.2701 -22.5554 -22.5195 -22.5085  -6.7728  -6.0512  -6.0244  -5.0684
    -5.0345  -5.0179  -4.9600  -4.8714   3.4487   6.4465   7.1139   7.3247
     7.9097   8.2427   8.8806   9.3351   9.3890  10.0463  12.6920  13.6128
    13.7350  14.5004

          k = 0.3500 0.0500 0.1500 (  5080 PWs)   bands (ev):

   -46.2701 -22.5550 -22.5195 -22.5089  -6.7733  -6.0514  -6.0238  -5.0683
    -5.0345  -5.0178  -4.9602  -4.8713   3.4489   6.4472   7.1143   7.3252
     7.9098   8.2438   8.8784   9.3350   9.3893  10.0455  12.6930  13.6118
    13.7343  14.5003

          k =-0.0500 0.4500 0.1500 (  5079 PWs)   bands (ev):

   -46.2699 -22.5659 -22.5191 -22.5081  -6.6840  -6.0125  -5.9958  -5.0859
    -5.0403  -5.0175  -4.9713  -4.8722   3.3181   6.1341   7.2171   7.4644
     7.7657   7.9507   8.9670   9.3142   9.4162  10.2729  12.6797  13.8704
    13.9717  14.0157

          k = 0.4500 0.0500 0.1500 (  5079 PWs)   bands (ev):

   -46.2699 -22.5655 -22.5191 -22.5085  -6.6847  -6.0128  -5.9950  -5.0859
    -5.0403  -5.0175  -4.9714  -4.8721   3.3184   6.1348   7.2182   7.4645
     7.7663   7.9512   8.9638   9.3143   9.4167  10.2723  12.6805  13.8697
    13.9717  14.0148

          k = 0.2500 0.0500 0.2500 (  5076 PWs)   bands (ev):

   -46.2701 -22.5375 -22.5370 -22.5089  -6.7925  -6.0740  -6.0195  -5.0523
    -5.0320  -5.0232  -4.9023  -4.8940   3.4774   6.7123   7.0291   7.2067
     7.9945   8.1444   8.7081   9.0943   9.5907   9.8447  13.1337  13.2110
    13.6394  14.9302

          k =-0.0500 0.3500 0.2500 (  5080 PWs)   bands (ev):

   -46.2698 -22.5546 -22.5365 -22.5079  -6.6783  -6.0288  -5.9629  -5.0612
    -5.0347  -5.0259  -4.9152  -4.8744   3.2811   6.4477   6.8980   7.2680
     7.7811   8.0943   8.5075   9.0500   9.6674   9.9240  13.1595  13.6111
    13.9448  14.7489

          k = 0.3500 0.0500 0.2500 (  5080 PWs)   bands (ev):

   -46.2698 -22.5542 -22.5365 -22.5083  -6.6790  -6.0289  -5.9622  -5.0611
    -5.0347  -5.0259  -4.9152  -4.8746   3.2813   6.4487   6.8975   7.2684
     7.7807   8.0937   8.5082   9.0501   9.6680   9.9232  13.1598  13.6101
    13.9444  14.7490

          k =-0.0500 0.4500 0.2500 (  5084 PWs)   bands (ev):

   -46.2696 -22.5651 -22.5361 -22.5075  -6.6157  -5.9827  -5.9320  -5.0707
    -5.0387  -5.0286  -4.9092  -4.8719   3.1706   6.1452   6.9550   7.2159
     7.7787   8.0308   8.4259   9.0792   9.6258   9.9815  13.1516  13.8691
    14.1443  14.5916

          k = 0.4500 0.0500 0.2500 (  5084 PWs)   bands (ev):

   -46.2696 -22.5647 -22.5361 -22.5079  -6.6166  -5.9829  -5.9311  -5.0706
    -5.0387  -5.0285  -4.9092  -4.8721   3.1708   6.1462   6.9550   7.2158
     7.7786   8.0320   8.4240   9.0796   9.6261   9.9813  13.1518  13.8683
    14.1440  14.5911

          k = 0.3500 0.0500 0.3500 (  5079 PWs)   bands (ev):

   -46.2694 -22.5536 -22.5533 -22.5076  -6.6110  -5.9668  -5.8976  -5.0580
    -5.0390  -5.0265  -4.9355  -4.8211   3.1207   6.4260   6.4943   7.3202
     7.6585   7.9553   8.4459   8.8071   9.6253   9.9734  13.5699  13.6323
    14.1741  14.9809

          k =-0.0500 0.4500 0.3500 (  5079 PWs)   bands (ev):

   -46.2692 -22.5642 -22.5529 -22.5068  -6.5829  -5.9015  -5.8616  -5.0612
    -5.0384  -5.0328  -4.9450  -4.7881   3.0255   6.1348   6.5027   7.2786
     7.6025   8.0911   8.2839   8.7603   9.4002  10.1081  13.5958  13.8667
    14.3396  15.1033

          k = 0.4500 0.0500 0.3500 (  5079 PWs)   bands (ev):

   -46.2692 -22.5638 -22.5529 -22.5072  -6.5839  -5.9014  -5.8608  -5.0611
    -5.0384  -5.0327  -4.9450  -4.7884   3.0257   6.1358   6.5027   7.2781
     7.6011   8.0922   8.2842   8.7603   9.4003  10.1087  13.5961  13.8658
    14.3392  15.1029

          k = 0.4500 0.0500 0.4500 (  5100 PWs)   bands (ev):

   -46.2690 -22.5634 -22.5633 -22.5068  -6.5788  -5.8268  -5.8146  -5.0609
    -5.0371  -5.0339  -4.9681  -4.7399   2.9376   6.0350   6.3168   7.3695
     7.4109   8.2024   8.3077   8.5461   9.0980  10.2737  13.8584  13.8681
    14.4819  15.3342

          k =-0.1500 0.2500 0.1500 (  5084 PWs)   bands (ev):

   -46.2703 -22.5379 -22.5199 -22.5196  -6.8356  -6.0820  -6.0656  -5.0542
    -5.0336  -5.0104  -4.9069  -4.8759   3.6103   6.7469   6.8355   7.3123
     8.0249   8.1672   8.9879   9.3727   9.4646   9.6132  12.9152  13.3202
    13.3350  15.1734

          k =-0.1500 0.3500 0.1500 (  5082 PWs)   bands (ev):

   -46.2699 -22.5549 -22.5192 -22.5190  -6.7000  -6.0507  -6.0132  -5.0694
    -5.0279  -5.0011  -4.9300  -4.8709   3.4055   6.4497   6.8316   7.1928
     7.7924   8.2248   8.6804   9.4298   9.4793   9.8829  12.8545  13.7011
    13.7017  14.6630

          k =-0.1500 0.4500 0.1500 (  5084 PWs)   bands (ev):

   -46.2697 -22.5654 -22.5187 -22.5186  -6.6173  -6.0307  -5.9769  -5.0762
    -5.0240  -4.9894  -4.9475  -4.8737   3.2917   6.1408   6.8216   7.2585
     7.6801   8.2940   8.4980   9.4620   9.4740  10.0169  12.7934  13.9306
    13.9434  14.4316

          k = 0.2500 0.1500 0.2500 (  5081 PWs)   bands (ev):

   -46.2699 -22.5370 -22.5366 -22.5195  -6.7114  -6.0649  -6.0275  -5.0556
    -5.0397  -4.9968  -4.8802  -4.8770   3.4669   6.6490   6.7598   7.1150
     7.6747   7.8930   9.1414   9.1755   9.6221   9.6487  13.2092  13.3208
    13.5804  14.9362

          k =-0.1500 0.3500 0.2500 (  5080 PWs)   bands (ev):

   -46.2696 -22.5542 -22.5361 -22.5184  -6.5966  -6.0422  -5.9799  -5.0595
    -5.0323  -4.9799  -4.8858  -4.8591   3.3215   6.4395   6.6718   6.8595
     7.4563   7.9145   8.8578   9.2867   9.6281   9.7654  13.1654  13.6391
    13.8596  14.8945

          k = 0.3500 0.1500 0.2500 (  5080 PWs)   bands (ev):

   -46.2696 -22.5538 -22.5361 -22.5188  -6.5972  -6.0424  -5.9791  -5.0594
    -5.0323  -4.9799  -4.8858  -4.8592   3.3217   6.4404   6.6722   6.8591
     7.4557   7.9142   8.8592   9.2862   9.6275   9.7655  13.1658  13.6385
    13.8593  14.8944

          k =-0.1500 0.4500 0.2500 (  5077 PWs)   bands (ev):

   -46.2694 -22.5646 -22.5356 -22.5180  -6.5344  -6.0241  -5.9425  -5.0599
    -5.0258  -4.9672  -4.8852  -4.8577   3.2341   6.1483   6.5982   6.8526
     7.4044   8.0067   8.6477   9.3575   9.5383   9.8220  13.1270  13.8755
    14.0612  14.9768

          k = 0.4500 0.1500 0.2500 (  5077 PWs)   bands (ev):

   -46.2694 -22.5642 -22.5356 -22.5184  -6.5352  -6.0244  -5.9416  -5.0599
    -5.0258  -4.9672  -4.8851  -4.8579   3.2343   6.1492   6.5989   6.8521
     7.4037   8.0063   8.6490   9.3569   9.5376   9.8224  13.1274  13.8749
    14.0609  14.9764

          k = 0.3500 0.1500 0.3500 (  5081 PWs)   bands (ev):

   -46.2692 -22.5531 -22.5529 -22.5181  -6.5231  -6.0001  -5.9402  -5.0529
    -5.0227  -4.9626  -4.8922  -4.8058   3.2242   6.4259   6.4349   6.6548
     7.0609   7.8809   8.9034   9.1065   9.3996   9.9775  13.4782  13.6477
    14.0565  15.1701

          k =-0.1500 0.4500 0.3500 (  5079 PWs)   bands (ev):

   -46.2690 -22.5638 -22.5525 -22.5173  -6.4944  -5.9603  -5.9082  -5.0499
    -5.0099  -4.9519  -4.9023  -4.7728   3.1593   6.1322   6.4539   6.5822
     6.9623   7.9235   8.7156   9.1268   9.2165  10.1003  13.5349  13.8325
    14.2166  15.4530

          k = 0.4500 0.1500 0.3500 (  5079 PWs)   bands (ev):

   -46.2690 -22.5634 -22.5525 -22.5177  -6.4954  -5.9603  -5.9073  -5.0498
    -5.0098  -4.9519  -4.9022  -4.7731   3.1595   6.1333   6.4536   6.5822
     6.9616   7.9231   8.7165   9.1267   9.2161  10.1010  13.5352  13.8318
    14.2163  15.4527

          k = 0.4500 0.1500 0.4500 (  5073 PWs)   bands (ev):

   -46.2688 -22.5629 -22.5629 -22.5173  -6.4905  -5.8962  -5.8853  -5.0454
    -4.9857  -4.9405  -4.9253  -4.7238   3.1058   6.0275   6.3089   6.6421
     6.6998   7.9360   8.5211   9.0548   9.0765  10.2682  13.7978  13.8253
    14.3459  15.7671

          k =-0.2500 0.3500 0.2500 (  5072 PWs)   bands (ev):

   -46.2692 -22.5534 -22.5355 -22.5353  -6.4748  -6.0540  -5.9984  -5.0423
    -5.0268  -4.9280  -4.8376  -4.8303   3.3731   6.3040   6.3789   6.6221
     7.2326   7.2918   8.9318   9.5375   9.5732   9.8146  13.2571  13.6880
    13.8387  15.1443

          k =-0.2500 0.4500 0.2500 (  5073 PWs)   bands (ev):

   -46.2690 -22.5638 -22.5351 -22.5349  -6.4186  -6.0624  -5.9571  -5.0391
    -5.0158  -4.8869  -4.8448  -4.8188   3.3292   6.1496   6.1768   6.5118
     7.1891   7.3476   8.6684   9.5149   9.6082   9.8693  13.2837  13.8552
    14.0442  15.4454

          k = 0.3500 0.2500 0.3500 (  5057 PWs)   bands (ev):

   -46.2689 -22.5524 -22.5522 -22.5351  -6.3842  -6.0422  -6.0009  -5.0291
    -5.0100  -4.8819  -4.8166  -4.7762   3.4017   6.1337   6.1893   6.4230
     6.7456   7.2176   8.4937   9.6329   9.6578   9.9884  13.4524  13.7548
    13.9813  15.4802

          k =-0.2500 0.4500 0.3500 (  5063 PWs)   bands (ev):

   -46.2687 -22.5631 -22.5518 -22.5343  -6.3523  -6.0381  -5.9714  -5.0239
    -4.9950  -4.8418  -4.8160  -4.7425   3.4054   6.0015   6.1294   6.1786
     6.6548   7.2227   8.1213   9.6390   9.6817  10.0988  13.5882  13.8502
    14.1391  15.8550

          k = 0.4500 0.2500 0.3500 (  5063 PWs)   bands (ev):

   -46.2687 -22.5627 -22.5518 -22.5347  -6.3531  -6.0383  -5.9705  -5.0238
    -4.9950  -4.8418  -4.8158  -4.7427   3.4056   6.0023   6.1299   6.1778
     6.6547   7.2222   8.1216   9.6394   9.6809  10.0996  13.5885  13.8497
    14.1390  15.8549

          k = 0.4500 0.2500 0.4500 (  5070 PWs)   bands (ev):

   -46.2685 -22.5622 -22.5622 -22.5343  -6.3461  -5.9867  -5.9772  -5.0177
    -4.9769  -4.8128  -4.8035  -4.6929   3.4374   5.9792   6.0407   6.0509
     6.3556   7.2177   7.6753   9.6763   9.6792  10.2592  13.8217  13.8667
    14.2532  16.1995

          k =-0.3500 0.4500 0.3500 (  5056 PWs)   bands (ev):

   -46.2684 -22.5623 -22.5512 -22.5511  -6.2275  -6.0844  -6.0257  -4.9988
    -4.9856  -4.7532  -4.7289  -4.6982   3.6998   5.6625   5.8066   6.0788
     6.5642   6.6629   7.3365   9.9634  10.0085  10.1291  13.7901  13.9654
    14.1330  16.2715

          k = 0.4500 0.3500 0.4500 (  5051 PWs)   bands (ev):

   -46.2682 -22.5615 -22.5615 -22.5511  -6.2010  -6.0610  -6.0529  -4.9899
    -4.9741  -4.7005  -4.6911  -4.6544   3.9098   5.5792   5.6110   5.9544
     6.3471   6.6173   6.7392  10.0682  10.0707  10.2506  13.9803  14.0296
    14.2077  16.6527

     the Fermi energy is    10.4292 ev

!    total energy              =    -364.95740056 Ry
     Harris-Foulkes estimate   =    -364.95740056 Ry
     estimated scf accuracy    <          2.6E-09 Ry

     The total energy is the sum of the following terms:

     one-electron contribution =     -82.64002535 Ry
     hartree contribution      =      70.68045362 Ry
     xc contribution           =     -85.79427043 Ry
     ewald contribution        =    -267.20974740 Ry
     smearing contrib. (-TS)   =       0.00618899 Ry

     convergence has been achieved in   4 iterations

     Forces acting on atoms (Ry/au):

     atom    1 type  1   force =     0.00000000   -0.00114867    0.00000000
     atom    2 type  2   force =     0.00000000   -0.00026213    0.00000000
     atom    3 type  3   force =     0.00000000    0.00016435    0.00000000
     atom    4 type  3   force =     0.00000000    0.00108210    0.00000000
     atom    5 type  3   force =     0.00000000    0.00016435    0.00000000

     Total force =     0.001107     Total SCF correction =     0.000100


     entering subroutine stress ...

          total   stress  (Ry/bohr**3)                   (kbar)     P=   -2.32
  -0.00001615   0.00000000   0.00000000         -2.38      0.00      0.00
   0.00000000  -0.00001505   0.00000000          0.00     -2.21      0.00
   0.00000000   0.00000000  -0.00001615          0.00      0.00     -2.38


     number of scf cycles    =   2
     number of bfgs steps    =   1

     energy   old            =    -364.9573990650 Ry
     energy   new            =    -364.9574005626 Ry

     CASE: energy  _new < energy  _old


     WARNING: bfgs curvature condition failed, Theta= 0.929
     new trust radius        =       0.0013920040 bohr
     new conv_thr            =            1.0E-10 Ry


ATOMIC_POSITIONS (crystal)
Pb       0.000000000   0.000000000   0.000000000    0   0   0
Ti       0.500000000   0.497000000   0.500000000    0   0   0
O        0.500000000   0.500028650   0.000000000
O        0.500000000   0.000354801   0.500000000
O        0.000000000   0.500028650   0.500000000



     Writing output data file PbTiO3.save
     NEW-OLD atomic charge density approx. for the potential

     Check: negative/imaginary core charge=   -0.000006    0.000000

     total cpu time spent up to now is      907.9 secs

     per-process dynamical memory:   237.5 Mb

     Self-consistent Calculation

     iteration #  1     ecut=    80.00 Ry     beta=0.70
     Davidson diagonalization with overlap
     ethr =  1.00E-06,  avg # of iterations =  2.0

     Threshold (ethr) on eigenvalues was too large:
     Diagonalizing with lowered threshold

     Davidson diagonalization with overlap
     ethr =  6.69E-10,  avg # of iterations =  3.6

     total cpu time spent up to now is      992.4 secs

     total energy              =    -364.95740196 Ry
     Harris-Foulkes estimate   =    -364.95740215 Ry
     estimated scf accuracy    <       0.00000032 Ry

     iteration #  2     ecut=    80.00 Ry     beta=0.70
     Davidson diagonalization with overlap
     ethr =  7.21E-10,  avg # of iterations =  2.8

     total cpu time spent up to now is     1035.8 secs

     total energy              =    -364.95740195 Ry
     Harris-Foulkes estimate   =    -364.95740208 Ry
     estimated scf accuracy    <       0.00000023 Ry

     iteration #  3     ecut=    80.00 Ry     beta=0.70
     Davidson diagonalization with overlap
     ethr =  5.29E-10,  avg # of iterations =  3.1

     total cpu time spent up to now is     1080.6 secs

     total energy              =    -364.95740200 Ry
     Harris-Foulkes estimate   =    -364.95740208 Ry
     estimated scf accuracy    <       0.00000024 Ry

     iteration #  4     ecut=    80.00 Ry     beta=0.70
     Davidson diagonalization with overlap
     ethr =  5.29E-10,  avg # of iterations =  2.3

     total cpu time spent up to now is     1124.2 secs

     total energy              =    -364.95740204 Ry
     Harris-Foulkes estimate   =    -364.95740204 Ry
     estimated scf accuracy    <          2.5E-09 Ry

     iteration #  5     ecut=    80.00 Ry     beta=0.70
     Davidson diagonalization with overlap
     ethr =  5.73E-12,  avg # of iterations =  4.0

     total cpu time spent up to now is     1179.2 secs

     total energy              =    -364.95740204 Ry
     Harris-Foulkes estimate   =    -364.95740204 Ry
     estimated scf accuracy    <          4.1E-09 Ry

     iteration #  6     ecut=    80.00 Ry     beta=0.70
     Davidson diagonalization with overlap
     ethr =  5.73E-12,  avg # of iterations =  3.0

     total cpu time spent up to now is     1220.3 secs

     total energy              =    -364.95740204 Ry
     Harris-Foulkes estimate   =    -364.95740204 Ry
     estimated scf accuracy    <          2.7E-10 Ry

     iteration #  7     ecut=    80.00 Ry     beta=0.70
     Davidson diagonalization with overlap
     ethr =  6.17E-13,  avg # of iterations =  2.7

     total cpu time spent up to now is     1260.1 secs

     End of self-consistent calculation

          k = 0.0500 0.0500 0.0500 (  5047 PWs)   bands (ev):

   -46.2711 -22.5109 -22.5105 -22.5104  -7.2246  -6.1951  -6.1944  -5.0129
    -5.0128  -5.0124  -4.8714  -4.8713   4.5044   6.8275   6.8278   6.9713
     9.0968   9.0970   9.2117   9.5566   9.5611   9.5981  12.3598  12.3699
    12.3713  14.4778

          k = 0.0500 0.0500 0.1500 (  5074 PWs)   bands (ev):

   -46.2709 -22.5211 -22.5105 -22.5101  -7.1380  -6.1636  -6.1628  -5.0217
    -5.0194  -5.0120  -4.9048  -4.8664   4.2068   6.8675   6.8976   7.1635
     8.8552   8.8995   9.2086   9.2963   9.5258   9.5541  12.3693  12.6971
    12.6999  14.4789

          k = 0.0500 0.0500 0.2500 (  5093 PWs)   bands (ev):

   -46.2705 -22.5383 -22.5099 -22.5094  -6.9931  -6.1123  -6.1087  -5.0377
    -5.0295  -5.0111  -4.9611  -4.8598   3.8392   6.8536   7.0276   7.1529
     8.5115   8.5791   9.1509   9.2526   9.5521   9.6498  12.3722  13.1719
    13.1795  14.4791

          k = 0.0500 0.0500 0.3500 (  5090 PWs)   bands (ev):

   -46.2702 -22.5554 -22.5092 -22.5088  -6.8408  -6.0629  -6.0473  -5.0632
    -5.0384  -5.0145  -5.0102  -4.8553   3.5551   6.4527   7.2003   7.2982
     8.1655   8.2209   9.0825   9.4056   9.5967  10.0233  12.3740  13.6082
    13.6163  14.3389

          k = 0.0500 0.0500 0.4500 (  5073 PWs)   bands (ev):

   -46.2700 -22.5659 -22.5089 -22.5084  -6.7422  -6.0337  -6.0050  -5.0944
    -5.0433  -5.0364  -5.0096  -4.8537   3.4101   6.1266   7.3727   7.5372
     7.8881   7.9008   9.0394   9.4815   9.6296  10.4623  12.3724  13.6078
    13.8677  13.8738

          k = 0.0500 0.1500 0.1500 (  5079 PWs)   bands (ev):

   -46.2707 -22.5212 -22.5206 -22.5097  -7.0539  -6.1400  -6.1307  -5.0314
    -5.0209  -5.0177  -4.9013  -4.8809   3.9904   6.8210   6.9511   7.3320
     8.5359   8.7337   9.0947   9.3355   9.3801   9.5629  12.6767  12.7234
    12.9504  14.7353

          k = 0.0500 0.1500 0.2500 (  5077 PWs)   bands (ev):

   -46.2703 -22.5378 -22.5205 -22.5090  -6.9150  -6.0993  -6.0772  -5.0476
    -5.0284  -5.0181  -4.9299  -4.8761   3.6945   6.7730   7.0475   7.2611
     8.2038   8.4932   8.8845   9.3241   9.3817   9.7544  12.6993  13.1770
    13.3471  14.7998

          k = 0.0500 0.1500 0.3500 (  5080 PWs)   bands (ev):

   -46.2700 -22.5549 -22.5198 -22.5084  -6.7731  -6.0513  -6.0241  -5.0684
    -5.0346  -5.0178  -4.9601  -4.8713   3.4488   6.4471   7.1146   7.3250
     7.9101   8.2435   8.8798   9.3348   9.3872  10.0457  12.6942  13.6116
    13.7348  14.4998

          k = 0.0500 0.1500 0.4500 (  5079 PWs)   bands (ev):

   -46.2698 -22.5654 -22.5194 -22.5080  -6.6844  -6.0130  -5.9951  -5.0859
    -5.0404  -5.0175  -4.9713  -4.8721   3.3183   6.1348   7.2186   7.4646
     7.7662   7.9508   8.9659   9.3143   9.4140  10.2721  12.6819  13.8693
    13.9722  14.0147

          k = 0.0500 0.2500 0.2500 (  5076 PWs)   bands (ev):

   -46.2700 -22.5377 -22.5370 -22.5084  -6.7921  -6.0738  -6.0200  -5.0523
    -5.0320  -5.0233  -4.9023  -4.8938   3.4773   6.7116   7.0295   7.2063
     7.9945   8.1461   8.7062   9.0942   9.5899   9.8458  13.1344  13.2114
    13.6400  14.9295

          k = 0.0500 0.2500 0.3500 (  5080 PWs)   bands (ev):

   -46.2697 -22.5541 -22.5368 -22.5078  -6.6785  -6.0291  -5.9626  -5.0612
    -5.0348  -5.0259  -4.9152  -4.8744   3.2811   6.4484   6.8977   7.2684
     7.7809   8.0945   8.5079   9.0486   9.6679   9.9231  13.1613  13.6099
    13.9450  14.7485

          k = 0.0500 0.2500 0.4500 (  5084 PWs)   bands (ev):

   -46.2695 -22.5645 -22.5364 -22.5074  -6.6160  -5.9834  -5.9312  -5.0707
    -5.0388  -5.0285  -4.9092  -4.8719   3.1707   6.1461   6.9548   7.2164
     7.7781   8.0318   8.4256   9.0775   9.6265   9.9803  13.1534  13.8679
    14.1446  14.5908

          k = 0.0500 0.3500 0.3500 (  5079 PWs)   bands (ev):

   -46.2693 -22.5538 -22.5533 -22.5071  -6.6102  -5.9671  -5.8981  -5.0580
    -5.0390  -5.0265  -4.9355  -4.8209   3.1205   6.4240   6.4957   7.3204
     7.6598   7.9553   8.4445   8.8068   9.6255   9.9727  13.5706  13.6327
    14.1746  14.9808

          k = 0.0500 0.3500 0.4500 (  5079 PWs)   bands (ev):

   -46.2691 -22.5637 -22.5533 -22.5067  -6.5830  -5.9022  -5.8609  -5.0612
    -5.0384  -5.0327  -4.9450  -4.7881   3.0255   6.1357   6.5020   7.2792
     7.6017   8.0922   8.2838   8.7593   9.4003  10.1078  13.5975  13.8654
    14.3399  15.1027

          k = 0.0500 0.4500 0.4500 (  5100 PWs)   bands (ev):

   -46.2689 -22.5637 -22.5632 -22.5063  -6.5779  -5.8274  -5.8151  -5.0610
    -5.0372  -5.0340  -4.9680  -4.7396   2.9374   6.0346   6.3161   7.3707
     7.4123   8.2014   8.3066   8.5465   9.0976  10.2729  13.8586  13.8685
    14.4826  15.3348

          k = 0.1500 0.1500 0.1500 (  5095 PWs)   bands (ev):

   -46.2705 -22.5208 -22.5203 -22.5202  -6.9710  -6.1128  -6.1121  -5.0349
    -5.0348  -5.0151  -4.8893  -4.8892   3.8387   6.8288   6.8290   7.4655
     8.3590   8.3598   9.2863   9.2912   9.3943   9.3977  12.9350  12.9482
    12.9485  15.2832

          k = 0.1500 0.1500 0.2500 (  5084 PWs)   bands (ev):

   -46.2701 -22.5374 -22.5201 -22.5196  -6.8357  -6.0825  -6.0649  -5.0542
    -5.0336  -5.0104  -4.9070  -4.8759   3.6104   6.7471   6.8360   7.3123
     8.0250   8.1668   8.9895   9.3709   9.4643   9.6132  12.9164  13.3193
    13.3348  15.1732

          k = 0.1500 0.1500 0.3500 (  5082 PWs)   bands (ev):

   -46.2698 -22.5544 -22.5194 -22.5189  -6.7004  -6.0513  -6.0124  -5.0694
    -5.0278  -5.0012  -4.9301  -4.8708   3.4056   6.4503   6.8324   7.1926
     7.7920   8.2249   8.6810   9.4288   9.4790   9.8823  12.8557  13.6977
    13.7042  14.6628

          k = 0.1500 0.1500 0.4500 (  5084 PWs)   bands (ev):

   -46.2696 -22.5649 -22.5190 -22.5185  -6.6178  -6.0313  -5.9759  -5.0761
    -5.0240  -4.9895  -4.9476  -4.8736   3.2919   6.1416   6.8228   7.2583
     7.6794   8.2954   8.4970   9.4630   9.4718  10.0162  12.7945  13.9292
    13.9439  14.4313

          k = 0.1500 0.2500 0.2500 (  5081 PWs)   bands (ev):

   -46.2698 -22.5372 -22.5366 -22.5190  -6.7112  -6.0646  -6.0280  -5.0556
    -5.0397  -4.9968  -4.8803  -4.8769   3.4668   6.6488   6.7595   7.1151
     7.6748   7.8932   9.1403   9.1754   9.6207   9.6509  13.2092  13.3210
    13.5810  14.9361

          k = 0.1500 0.2500 0.3500 (  5080 PWs)   bands (ev):

   -46.2695 -22.5536 -22.5364 -22.5183  -6.5968  -6.0426  -5.9793  -5.0594
    -5.0323  -4.9799  -4.8858  -4.8591   3.3216   6.4402   6.6724   6.8592
     7.4553   7.9148   8.8593   9.2850   9.6283   9.7649  13.1665  13.6383
    13.8598  14.8944

          k = 0.1500 0.2500 0.4500 (  5077 PWs)   bands (ev):

   -46.2692 -22.5641 -22.5360 -22.5179  -6.5347  -6.0248  -5.9416  -5.0599
    -5.0257  -4.9674  -4.8851  -4.8577   3.2342   6.1492   6.5992   6.8521
     7.4031   8.0071   8.6490   9.3561   9.5383   9.8214  13.1282  13.8746
    14.0614  14.9763

          k = 0.1500 0.3500 0.3500 (  5081 PWs)   bands (ev):

   -46.2691 -22.5534 -22.5528 -22.5176  -6.5224  -6.0004  -5.9407  -5.0530
    -5.0227  -4.9627  -4.8923  -4.8055   3.2240   6.4180   6.4423   6.6549
     7.0611   7.8814   8.9028   9.1061   9.4002   9.9768  13.4785  13.6480
    14.0569  15.1701

          k = 0.1500 0.3500 0.4500 (  5079 PWs)   bands (ev):

   -46.2689 -22.5633 -22.5528 -22.5172  -6.4945  -5.9611  -5.9074  -5.0499
    -5.0098  -4.9521  -4.9022  -4.7729   3.1593   6.1332   6.4531   6.5827
     6.9614   7.9237   8.7163   9.1266   9.2158  10.1002  13.5361  13.8315
    14.2168  15.4527

          k = 0.1500 0.4500 0.4500 (  5073 PWs)   bands (ev):

   -46.2687 -22.5632 -22.5628 -22.5168  -6.4895  -5.8967  -5.8858  -5.0454
    -4.9857  -4.9406  -4.9254  -4.7235   3.1056   6.0271   6.3082   6.6427
     6.7004   7.9366   8.5206   9.0546   9.0764  10.2673  13.7980  13.8256
    14.3464  15.7673

          k = 0.2500 0.2500 0.2500 (  5070 PWs)   bands (ev):

   -46.2695 -22.5366 -22.5360 -22.5358  -6.5858  -6.0413  -6.0407  -5.0440
    -5.0440  -4.9659  -4.8525  -4.8524   3.4308   6.4980   6.4983   7.0651
     7.3673   7.3679   9.2563   9.4675   9.4679   9.7043  13.2541  13.5503
    13.5503  14.9344

          k = 0.2500 0.2500 0.3500 (  5072 PWs)   bands (ev):

   -46.2691 -22.5529 -22.5358 -22.5352  -6.4751  -6.0545  -5.9977  -5.0423
    -5.0268  -4.9280  -4.8375  -4.8305   3.3732   6.3045   6.3790   6.6222
     7.2296   7.2941   8.9323   9.5374   9.5725   9.8148  13.2577  13.6876
    13.8387  15.1443

          k = 0.2500 0.2500 0.4500 (  5073 PWs)   bands (ev):

   -46.2689 -22.5633 -22.5353 -22.5348  -6.4191  -6.0629  -5.9561  -5.0390
    -5.0158  -4.8869  -4.8447  -4.8189   3.3293   6.1503   6.1777   6.5111
     7.1871   7.3489   8.6690   9.5150   9.6072   9.8696  13.2844  13.8545
    14.0443  15.4452

          k = 0.2500 0.3500 0.3500 (  5057 PWs)   bands (ev):

   -46.2688 -22.5526 -22.5521 -22.5346  -6.3837  -6.0422  -6.0013  -5.0292
    -5.0099  -4.8820  -4.8167  -4.7760   3.4016   6.1335   6.1893   6.4231
     6.7452   7.2182   8.4935   9.6328   9.6583   9.9877  13.4525  13.7550
    13.9816  15.4803

          k = 0.2500 0.3500 0.4500 (  5063 PWs)   bands (ev):

   -46.2686 -22.5626 -22.5521 -22.5342  -6.3524  -6.0389  -5.9705  -5.0239
    -4.9950  -4.8419  -4.8159  -4.7425   3.4055   6.0026   6.1295   6.1781
     6.6540   7.2230   8.1214   9.6400   9.6806  10.0989  13.5889  13.8496
    14.1392  15.8549

          k = 0.2500 0.4500 0.4500 (  5070 PWs)   bands (ev):

   -46.2684 -22.5625 -22.5621 -22.5338  -6.3452  -5.9871  -5.9777  -5.0178
    -4.9769  -4.8130  -4.8037  -4.6926   3.4372   5.9787   6.0391   6.0531
     6.3553   7.2184   7.6750   9.6763   9.6794  10.2584  13.8218  13.8669
    14.2535  16.1997

          k = 0.3500 0.3500 0.3500 (  5055 PWs)   bands (ev):

   -46.2684 -22.5520 -22.5515 -22.5514  -6.2665  -6.0548  -6.0542  -5.0025
    -5.0024  -4.8076  -4.7427  -4.7425   3.5874   5.8572   5.8577   6.3265
     6.6764   6.6767   7.8312   9.9151   9.9159  10.0351  13.6109  13.9597
    13.9597  15.8685

          k = 0.3500 0.3500 0.4500 (  5056 PWs)   bands (ev):

   -46.2682 -22.5618 -22.5515 -22.5510  -6.2279  -6.0848  -6.0249  -4.9987
    -4.9856  -4.7531  -4.7289  -4.6984   3.6999   5.6630   5.8059   6.0793
     6.5638   6.6630   7.3366   9.9624  10.0091  10.1295  13.7905  13.9652
    14.1331  16.2715

          k = 0.3500 0.4500 0.4500 (  5051 PWs)   bands (ev):

   -46.2680 -22.5618 -22.5614 -22.5506  -6.2002  -6.0614  -6.0533  -4.9899
    -4.9740  -4.7007  -4.6912  -4.6540   3.9097   5.5792   5.6112   5.9543
     6.3465   6.6180   6.7390  10.0684  10.0710  10.2497  13.9803  14.0297
    14.2079  16.6528

          k = 0.4500 0.4500 0.4500 (  5034 PWs)   bands (ev):

   -46.2678 -22.5614 -22.5610 -22.5610  -6.1182  -6.0949  -6.0943  -4.9727
    -4.9726  -4.6355  -4.6263  -4.6260   4.4036   5.3816   5.3820   5.8429
     5.9545   6.3474   6.3481  10.2370  10.2376  10.2515  14.1430  14.1883
    14.1883  17.0222

          k =-0.0500 0.1500 0.0500 (  5074 PWs)   bands (ev):

   -46.2709 -22.5215 -22.5101 -22.5100  -7.1380  -6.1635  -6.1630  -5.0217
    -5.0194  -5.0121  -4.9047  -4.8664   4.2067   6.8674   6.8972   7.1636
     8.8547   8.8991   9.2087   9.2947   9.5373   9.5452  12.3667  12.6991
    12.7008  14.4776

          k =-0.0500 0.2500 0.0500 (  5093 PWs)   bands (ev):

   -46.2705 -22.5387 -22.5095 -22.5094  -6.9929  -6.1129  -6.1081  -5.0377
    -5.0294  -5.0112  -4.9611  -4.8599   3.8391   6.8534   7.0271   7.1526
     8.5107   8.5779   9.1511   9.2529   9.5554   9.6497  12.3696  13.1734
    13.1808  14.4779

          k =-0.0500 0.3500 0.0500 (  5090 PWs)   bands (ev):

   -46.2702 -22.5558 -22.5088 -22.5088  -6.8404  -6.0637  -6.0468  -5.0632
    -5.0384  -5.0145  -5.0103  -4.8554   3.5549   6.4523   7.1994   7.2975
     8.1650   8.2198   9.0828   9.4081   9.5982  10.0240  12.3714  13.6095
    13.6174  14.3393

          k =-0.0500 0.4500 0.0500 (  5073 PWs)   bands (ev):

   -46.2700 -22.5663 -22.5084 -22.5084  -6.7417  -6.0346  -6.0044  -5.0945
    -5.0433  -5.0364  -5.0097  -4.8538   3.4098   6.1262   7.3711   7.5354
     7.8881   7.9010   9.0397   9.4848   9.6307  10.4630  12.3698  13.6081
    13.8686  13.8748

          k = 0.1500 0.0500 0.1500 (  5079 PWs)   bands (ev):

   -46.2707 -22.5209 -22.5206 -22.5101  -7.0539  -6.1405  -6.1302  -5.0315
    -5.0208  -5.0177  -4.9014  -4.8808   3.9904   6.8209   6.9515   7.3318
     8.5369   8.7318   9.0968   9.3362   9.3773   9.5639  12.6768  12.7235
    12.9494  14.7365

          k =-0.0500 0.2500 0.1500 (  5077 PWs)   bands (ev):

   -46.2703 -22.5383 -22.5200 -22.5090  -6.9149  -6.0993  -6.0773  -5.0476
    -5.0283  -5.0182  -4.9298  -4.8761   3.6944   6.7727   7.0472   7.2611
     8.2031   8.4929   8.8843   9.3256   9.3822   9.7546  12.6972  13.1786
    13.3475  14.7993

          k = 0.2500 0.0500 0.1500 (  5077 PWs)   bands (ev):

   -46.2703 -22.5378 -22.5200 -22.5095  -6.9151  -6.0996  -6.0767  -5.0477
    -5.0283  -5.0181  -4.9299  -4.8761   3.6945   6.7731   7.0476   7.2610
     8.2038   8.4922   8.8850   9.3245   9.3827   9.7538  12.6983  13.1774
    13.3467  14.8006

          k =-0.0500 0.3500 0.1500 (  5080 PWs)   bands (ev):

   -46.2700 -22.5553 -22.5194 -22.5084  -6.7728  -6.0512  -6.0244  -5.0684
    -5.0345  -5.0179  -4.9600  -4.8714   3.4487   6.4466   7.1139   7.3247
     7.9097   8.2427   8.8806   9.3351   9.3890  10.0463  12.6921  13.6130
    13.7351  14.5004

          k = 0.3500 0.0500 0.1500 (  5080 PWs)   bands (ev):

   -46.2700 -22.5549 -22.5194 -22.5088  -6.7733  -6.0514  -6.0238  -5.0683
    -5.0345  -5.0178  -4.9602  -4.8713   3.4489   6.4472   7.1143   7.3252
     7.9098   8.2438   8.8782   9.3350   9.3893  10.0454  12.6931  13.6119
    13.7344  14.5004

          k =-0.0500 0.4500 0.1500 (  5079 PWs)   bands (ev):

   -46.2698 -22.5658 -22.5190 -22.5080  -6.6840  -6.0125  -5.9958  -5.0859
    -5.0403  -5.0176  -4.9713  -4.8722   3.3181   6.1341   7.2171   7.4644
     7.7657   7.9507   8.9670   9.3142   9.4162  10.2729  12.6797  13.8706
    13.9719  14.0157

          k = 0.4500 0.0500 0.1500 (  5079 PWs)   bands (ev):

   -46.2698 -22.5654 -22.5190 -22.5084  -6.6846  -6.0128  -5.9950  -5.0859
    -5.0403  -5.0175  -4.9714  -4.8721   3.3183   6.1348   7.2182   7.4645
     7.7664   7.9513   8.9636   9.3143   9.4168  10.2723  12.6807  13.8698
    13.9717  14.0149

          k = 0.2500 0.0500 0.2500 (  5076 PWs)   bands (ev):

   -46.2700 -22.5374 -22.5369 -22.5088  -6.7925  -6.0740  -6.0195  -5.0523
    -5.0320  -5.0232  -4.9023  -4.8940   3.4774   6.7123   7.0291   7.2067
     7.9945   8.1443   8.7082   9.0943   9.5907   9.8447  13.1338  13.2111
    13.6395  14.9304

          k =-0.0500 0.3500 0.2500 (  5080 PWs)   bands (ev):

   -46.2697 -22.5545 -22.5364 -22.5078  -6.6783  -6.0288  -5.9629  -5.0612
    -5.0347  -5.0259  -4.9152  -4.8744   3.2810   6.4477   6.8980   7.2679
     7.7811   8.0943   8.5075   9.0500   9.6673   9.9240  13.1596  13.6113
    13.9450  14.7490

          k = 0.3500 0.0500 0.2500 (  5080 PWs)   bands (ev):

   -46.2697 -22.5541 -22.5364 -22.5082  -6.6790  -6.0289  -5.9622  -5.0611
    -5.0347  -5.0259  -4.9152  -4.8746   3.2813   6.4487   6.8975   7.2684
     7.7806   8.0936   8.5082   9.0501   9.6680   9.9232  13.1599  13.6102
    13.9445  14.7490

          k =-0.0500 0.4500 0.2500 (  5084 PWs)   bands (ev):

   -46.2695 -22.5650 -22.5359 -22.5074  -6.6158  -5.9827  -5.9320  -5.0707
    -5.0387  -5.0286  -4.9092  -4.8719   3.1706   6.1453   6.9550   7.2159
     7.7787   8.0308   8.4259   9.0792   9.6257   9.9815  13.1517  13.8693
    14.1445  14.5916

          k = 0.4500 0.0500 0.2500 (  5084 PWs)   bands (ev):

   -46.2695 -22.5645 -22.5359 -22.5078  -6.6166  -5.9829  -5.9311  -5.0706
    -5.0387  -5.0285  -4.9092  -4.8721   3.1708   6.1462   6.9550   7.2158
     7.7786   8.0320   8.4239   9.0797   9.6261   9.9813  13.1519  13.8684
    14.1441  14.5911

          k = 0.3500 0.0500 0.3500 (  5079 PWs)   bands (ev):

   -46.2693 -22.5535 -22.5532 -22.5075  -6.6110  -5.9668  -5.8976  -5.0580
    -5.0390  -5.0265  -4.9355  -4.8211   3.1206   6.4260   6.4943   7.3202
     7.6583   7.9553   8.4460   8.8071   9.6253   9.9734  13.5699  13.6324
    14.1742  14.9809

          k =-0.0500 0.4500 0.3500 (  5079 PWs)   bands (ev):

   -46.2691 -22.5642 -22.5528 -22.5067  -6.5829  -5.9015  -5.8616  -5.0612
    -5.0384  -5.0328  -4.9450  -4.7881   3.0255   6.1348   6.5028   7.2786
     7.6025   8.0911   8.2838   8.7602   9.4002  10.1081  13.5959  13.8668
    14.3397  15.1033

          k = 0.4500 0.0500 0.3500 (  5079 PWs)   bands (ev):

   -46.2691 -22.5637 -22.5528 -22.5071  -6.5839  -5.9014  -5.8608  -5.0611
    -5.0384  -5.0327  -4.9450  -4.7884   3.0257   6.1358   6.5027   7.2780
     7.6010   8.0922   8.2843   8.7604   9.4003  10.1087  13.5962  13.8659
    14.3393  15.1029

          k = 0.4500 0.0500 0.4500 (  5100 PWs)   bands (ev):

   -46.2689 -22.5632 -22.5632 -22.5067  -6.5788  -5.8268  -5.8146  -5.0609
    -5.0371  -5.0339  -4.9681  -4.7399   2.9376   6.0350   6.3168   7.3694
     7.4108   8.2025   8.3078   8.5462   9.0980  10.2737  13.8584  13.8682
    14.4819  15.3343

          k =-0.1500 0.2500 0.1500 (  5084 PWs)   bands (ev):

   -46.2701 -22.5378 -22.5197 -22.5195  -6.8356  -6.0820  -6.0656  -5.0542
    -5.0336  -5.0104  -4.9069  -4.8759   3.6103   6.7469   6.8355   7.3124
     8.0248   8.1671   8.9878   9.3727   9.4645   9.6132  12.9153  13.3204
    13.3352  15.1734

          k =-0.1500 0.3500 0.1500 (  5082 PWs)   bands (ev):

   -46.2698 -22.5548 -22.5191 -22.5189  -6.7000  -6.0507  -6.0132  -5.0694
    -5.0279  -5.0011  -4.9300  -4.8709   3.4054   6.4498   6.8315   7.1929
     7.7924   8.2248   8.6803   9.4298   9.4793   9.8829  12.8545  13.7013
    13.7019  14.6630

          k =-0.1500 0.4500 0.1500 (  5084 PWs)   bands (ev):

   -46.2696 -22.5653 -22.5186 -22.5185  -6.6173  -6.0307  -5.9768  -5.0762
    -5.0241  -4.9894  -4.9475  -4.8737   3.2917   6.1409   6.8216   7.2585
     7.6801   8.2939   8.4980   9.4620   9.4740  10.0169  12.7934  13.9308
    13.9435  14.4316

          k = 0.2500 0.1500 0.2500 (  5081 PWs)   bands (ev):

   -46.2698 -22.5369 -22.5365 -22.5194  -6.7114  -6.0649  -6.0275  -5.0556
    -5.0397  -4.9968  -4.8802  -4.8770   3.4669   6.6490   6.7598   7.1150
     7.6746   7.8930   9.1413   9.1755   9.6221   9.6487  13.2093  13.3209
    13.5805  14.9362

          k =-0.1500 0.3500 0.2500 (  5080 PWs)   bands (ev):

   -46.2695 -22.5541 -22.5360 -22.5183  -6.5966  -6.0422  -5.9799  -5.0595
    -5.0323  -4.9799  -4.8858  -4.8591   3.3215   6.4395   6.6718   6.8595
     7.4563   7.9145   8.8577   9.2867   9.6280   9.7654  13.1655  13.6393
    13.8598  14.8945

          k = 0.3500 0.1500 0.2500 (  5080 PWs)   bands (ev):

   -46.2695 -22.5536 -22.5360 -22.5187  -6.5972  -6.0424  -5.9791  -5.0594
    -5.0323  -4.9799  -4.8858  -4.8592   3.3216   6.4404   6.6722   6.8591
     7.4557   7.9143   8.8591   9.2861   9.6275   9.7655  13.1659  13.6386
    13.8594  14.8944

          k =-0.1500 0.4500 0.2500 (  5077 PWs)   bands (ev):

   -46.2692 -22.5645 -22.5355 -22.5179  -6.5344  -6.0241  -5.9425  -5.0599
    -5.0258  -4.9672  -4.8852  -4.8577   3.2341   6.1484   6.5982   6.8526
     7.4044   8.0067   8.6476   9.3575   9.5382   9.8220  13.1271  13.8757
    14.0613  14.9768

          k = 0.4500 0.1500 0.2500 (  5077 PWs)   bands (ev):

   -46.2692 -22.5641 -22.5355 -22.5183  -6.5351  -6.0244  -5.9416  -5.0599
    -5.0258  -4.9672  -4.8851  -4.8579   3.2343   6.1492   6.5989   6.8522
     7.4037   8.0063   8.6490   9.3569   9.5376   9.8224  13.1275  13.8750
    14.0610  14.9764

          k = 0.3500 0.1500 0.3500 (  5081 PWs)   bands (ev):

   -46.2691 -22.5530 -22.5527 -22.5181  -6.5231  -6.0001  -5.9402  -5.0529
    -5.0227  -4.9626  -4.8922  -4.8058   3.2242   6.4259   6.4349   6.6548
     7.0609   7.8810   8.9033   9.1065   9.3996   9.9775  13.4783  13.6478
    14.0566  15.1701

          k =-0.1500 0.4500 0.3500 (  5079 PWs)   bands (ev):

   -46.2689 -22.5637 -22.5524 -22.5172  -6.4944  -5.9603  -5.9082  -5.0499
    -5.0099  -4.9519  -4.9023  -4.7728   3.1593   6.1322   6.4539   6.5822
     6.9623   7.9235   8.7155   9.1268   9.2165  10.1002  13.5350  13.8326
    14.2167  15.4530

          k = 0.4500 0.1500 0.3500 (  5079 PWs)   bands (ev):

   -46.2689 -22.5633 -22.5524 -22.5177  -6.4953  -5.9603  -5.9073  -5.0498
    -5.0098  -4.9519  -4.9022  -4.7731   3.1595   6.1333   6.4536   6.5822
     6.9615   7.9231   8.7165   9.1267   9.2161  10.1010  13.5353  13.8319
    14.2164  15.4527

          k = 0.4500 0.1500 0.4500 (  5073 PWs)   bands (ev):

   -46.2687 -22.5628 -22.5628 -22.5172  -6.4905  -5.8962  -5.8853  -5.0454
    -4.9858  -4.9405  -4.9253  -4.7238   3.1058   6.0275   6.3090   6.6420
     6.6998   7.9361   8.5211   9.0548   9.0765  10.2681  13.7979  13.8254
    14.3460  15.7671

          k =-0.2500 0.3500 0.2500 (  5072 PWs)   bands (ev):

   -46.2691 -22.5533 -22.5354 -22.5352  -6.4748  -6.0540  -5.9984  -5.0423
    -5.0268  -4.9280  -4.8376  -4.8303   3.3731   6.3040   6.3789   6.6222
     7.2326   7.2918   8.9317   9.5374   9.5732   9.8145  13.2572  13.6882
    13.8388  15.1443

          k =-0.2500 0.4500 0.2500 (  5073 PWs)   bands (ev):

   -46.2689 -22.5638 -22.5350 -22.5347  -6.4186  -6.0624  -5.9570  -5.0391
    -5.0158  -4.8869  -4.8448  -4.8188   3.3291   6.1497   6.1768   6.5118
     7.1892   7.3476   8.6684   9.5148   9.6082   9.8692  13.2838  13.8553
    14.0444  15.4454

          k = 0.3500 0.2500 0.3500 (  5057 PWs)   bands (ev):

   -46.2688 -22.5523 -22.5521 -22.5350  -6.3842  -6.0422  -6.0009  -5.0291
    -5.0100  -4.8819  -4.8166  -4.7762   3.4017   6.1337   6.1893   6.4230
     6.7456   7.2177   8.4937   9.6329   9.6577   9.9884  13.4525  13.7549
    13.9814  15.4802

          k =-0.2500 0.4500 0.3500 (  5063 PWs)   bands (ev):

   -46.2686 -22.5630 -22.5517 -22.5342  -6.3523  -6.0381  -5.9714  -5.0239
    -4.9950  -4.8418  -4.8160  -4.7425   3.4054   6.0015   6.1295   6.1786
     6.6548   7.2227   8.1213   9.6390   9.6817  10.0988  13.5883  13.8503
    14.1392  15.8550

          k = 0.4500 0.2500 0.3500 (  5063 PWs)   bands (ev):

   -46.2686 -22.5626 -22.5517 -22.5346  -6.3531  -6.0383  -5.9705  -5.0238
    -4.9950  -4.8418  -4.8158  -4.7427   3.4056   6.0023   6.1299   6.1778
     6.6547   7.2223   8.1216   9.6394   9.6809  10.0996  13.5886  13.8498
    14.1391  15.8549

          k = 0.4500 0.2500 0.4500 (  5070 PWs)   bands (ev):

   -46.2684 -22.5621 -22.5621 -22.5342  -6.3460  -5.9867  -5.9772  -5.0177
    -4.9769  -4.8128  -4.8035  -4.6929   3.4374   5.9792   6.0407   6.0508
     6.3557   7.2178   7.6753   9.6763   9.6792  10.2592  13.8218  13.8668
    14.2533  16.1996

          k =-0.3500 0.4500 0.3500 (  5056 PWs)   bands (ev):

   -46.2682 -22.5623 -22.5511 -22.5510  -6.2275  -6.0844  -6.0257  -4.9988
    -4.9856  -4.7532  -4.7289  -4.6982   3.6998   5.6625   5.8066   6.0789
     6.5642   6.6629   7.3365   9.9633  10.0084  10.1291  13.7902  13.9655
    14.1331  16.2716

          k = 0.4500 0.3500 0.4500 (  5051 PWs)   bands (ev):

   -46.2680 -22.5614 -22.5614 -22.5510  -6.2010  -6.0610  -6.0529  -4.9899
    -4.9741  -4.7005  -4.6911  -4.6544   3.9098   5.5792   5.6110   5.9544
     6.3471   6.6173   6.7392  10.0681  10.0706  10.2505  13.9804  14.0297
    14.2078  16.6527

     the Fermi energy is    10.4292 ev

!    total energy              =    -364.95740204 Ry
     Harris-Foulkes estimate   =    -364.95740204 Ry
     estimated scf accuracy    <          6.2E-12 Ry

     The total energy is the sum of the following terms:

     one-electron contribution =     -82.64073882 Ry
     hartree contribution      =      70.68083243 Ry
     xc contribution           =     -85.79430887 Ry
     ewald contribution        =    -267.20937577 Ry
     smearing contrib. (-TS)   =       0.00618898 Ry

     convergence has been achieved in   7 iterations

     Forces acting on atoms (Ry/au):

     atom    1 type  1   force =     0.00000000   -0.00110914    0.00000000
     atom    2 type  2   force =     0.00000000   -0.00036087    0.00000000
     atom    3 type  3   force =     0.00000000    0.00027810    0.00000000
     atom    4 type  3   force =     0.00000000    0.00091382    0.00000000
     atom    5 type  3   force =     0.00000000    0.00027810    0.00000000

     Total force =     0.000995     Total SCF correction =     0.000001


     entering subroutine stress ...

          total   stress  (Ry/bohr**3)                   (kbar)     P=   -2.33
  -0.00001630   0.00000000   0.00000000         -2.40      0.00      0.00
   0.00000000  -0.00001499   0.00000000          0.00     -2.20      0.00
   0.00000000   0.00000000  -0.00001630          0.00      0.00     -2.40


     bfgs converged in   3 scf cycles and   2 bfgs steps
     (criteria: energy <  1.0E-04, force <  1.0E-03)

     End of BFGS Geometry Optimization

     Final energy   =    -364.9574020389 Ry
Begin final coordinates

ATOMIC_POSITIONS (crystal)
Pb       0.000000000   0.000000000   0.000000000    0   0   0
Ti       0.500000000   0.497000000   0.500000000    0   0   0
O        0.500000000   0.500028650   0.000000000
O        0.500000000   0.000354801   0.500000000
O        0.000000000   0.500028650   0.500000000
End final coordinates



     Writing output data file PbTiO3.save

     init_run     :     15.15s CPU     18.23s WALL (       1 calls)
     electrons    :    866.47s CPU   1179.07s WALL (       3 calls)
     update_pot   :      1.16s CPU      1.26s WALL (       2 calls)
     forces       :     22.91s CPU     23.38s WALL (       3 calls)
     stress       :     62.25s CPU     63.54s WALL (       3 calls)

     Called by init_run:
     wfcinit      :     11.66s CPU     14.68s WALL (       1 calls)
     potinit      :      0.30s CPU      0.32s WALL (       1 calls)

     Called by electrons:
     c_bands      :    722.65s CPU    977.89s WALL (      26 calls)
     sum_band     :    111.40s CPU    167.65s WALL (      26 calls)
     v_of_rho     :      7.24s CPU      7.92s WALL (      27 calls)
     newd         :     27.95s CPU     28.23s WALL (      27 calls)
     mix_rho      :      0.30s CPU      0.45s WALL (      26 calls)

     Called by c_bands:
     init_us_2    :     12.80s CPU     16.19s WALL (    4425 calls)
     cegterg      :    699.71s CPU    952.16s WALL (    1950 calls)

     Called by *egterg:
     h_psi        :    421.50s CPU    655.32s WALL (    8108 calls)
     s_psi        :     69.02s CPU     75.01s WALL (    8108 calls)
     g_psi        :      1.60s CPU      2.14s WALL (    6083 calls)
     cdiaghg      :     13.58s CPU     16.16s WALL (    7733 calls)

     Called by h_psi:
     add_vuspsi   :     71.78s CPU     75.69s WALL (    8108 calls)

     General routines
     calbec       :    109.19s CPU    118.14s WALL (   10508 calls)
     fft          :      2.34s CPU      3.21s WALL (     505 calls)
     ffts         :      0.06s CPU      0.11s WALL (      53 calls)
     fftw         :    282.93s CPU    519.13s WALL (  314968 calls)
     interpolate  :      0.33s CPU      0.50s WALL (      53 calls)
     davcio       :      0.00s CPU      0.04s WALL (      75 calls)

     Parallel routines
     fft_scatter  :     13.05s CPU     25.76s WALL (  315526 calls)

     PWSCF        : 16m10.81s CPU    21m28.50s WALL


   This run was terminated on:  16:16: 2  12May2020            

=------------------------------------------------------------------------------=
   JOB DONE.
=------------------------------------------------------------------------------=
