
     Program PWSCF v.6.4.1 starts on 14May2020 at  8:36:16 

     This program is part of the open-source Quantum ESPRESSO suite
     for quantum simulation of materials; please cite
         "P. Giannozzi et al., J. Phys.:Condens. Matter 21 395502 (2009);
         "P. Giannozzi et al., J. Phys.:Condens. Matter 29 465901 (2017);
          URL http://www.quantum-espresso.org", 
     in publications or presentations arising from this work. More details at
     http://www.quantum-espresso.org/quote

     Parallel version (MPI), running on     1 processors

     MPI processes distributed on     1 nodes
     Reading input from PTO_7.2_10_0.548.pw.in
Warning: card  &CELL ignored
Warning: card   CELL_DYNAMICS = 'BFGS', ignored
Warning: card  / ignored

     Current dimensions of program PWSCF are:
     Max number of different atomic species (ntypx) = 10
     Max number of k-points (npk) =  40000
     Max angular momentum in pseudopotentials (lmaxx) =  3
     Message from routine read_upf::
     Pseudo file Pb.pbe-dn-rrkjus_psl.0.2.2.UPF has been fixed on the fly.
To avoid this message in the future, permanently fix 
 your pseudo files following these instructions: 
https://gitlab.com/QEF/q-e/blob/master/upftools/how_to_fix_upf.md
     Message from routine read_upf::
     Pseudo file O.pbe-n-rrkjus_psl.0.1.UPF has been fixed on the fly.
To avoid this message in the future, permanently fix 
 your pseudo files following these instructions: 
https://gitlab.com/QEF/q-e/blob/master/upftools/how_to_fix_upf.md
               file Pb.pbe-dn-rrkjus_psl.0.2.2.UPF: wavefunction(s)  6S renormalized

     Subspace diagonalization in iterative solution of the eigenvalue problem:
     a serial algorithm will be used


     G-vector sticks info
     --------------------
     sticks:   dense  smooth     PW     G-vecs:    dense   smooth      PW
     Sum        3305    1313    377               142945    36137    5575



     bravais-lattice index     =            1
     lattice parameter (alat)  =       7.2000  a.u.
     unit-cell volume          =     373.2480 (a.u.)^3
     number of atoms/cell      =            5
     number of atomic types    =            3
     number of electrons       =        44.00
     number of Kohn-Sham states=           26
     kinetic-energy cutoff     =      80.0000  Ry
     charge density cutoff     =     800.0000  Ry
     convergence threshold     =      1.0E-08
     mixing beta               =       0.7000
     number of iterations used =            8  plain     mixing
     Exchange-correlation      = PBE ( 1  4  3  4 0 0)
     nstep                     =           50


     celldm(1)=   7.200000  celldm(2)=   0.000000  celldm(3)=   0.000000
     celldm(4)=   0.000000  celldm(5)=   0.000000  celldm(6)=   0.000000

     crystal axes: (cart. coord. in units of alat)
               a(1) = (   1.000000   0.000000   0.000000 )  
               a(2) = (   0.000000   1.000000   0.000000 )  
               a(3) = (   0.000000   0.000000   1.000000 )  

     reciprocal axes: (cart. coord. in units 2 pi/alat)
               b(1) = (  1.000000  0.000000  0.000000 )  
               b(2) = (  0.000000  1.000000  0.000000 )  
               b(3) = (  0.000000  0.000000  1.000000 )  


     PseudoPot. # 1 for Pb read from file:
     ./Pb.pbe-dn-rrkjus_psl.0.2.2.UPF
     MD5 check sum: 7afc420059c37d6888fc09c0f121e83f
     Pseudo is Ultrasoft + core correction, Zval = 14.0
     Generated using "atomic" code by A. Dal Corso v.5.0.2 svn rev. 9415
     Using radial grid of 1281 points,  6 beta functions with: 
                l(1) =   0
                l(2) =   0
                l(3) =   1
                l(4) =   1
                l(5) =   2
                l(6) =   2
     Q(r) pseudized with 0 coefficients 


     PseudoPot. # 2 for Ti read from file:
     ./Ti.pbe-sp-van_ak.UPF
     MD5 check sum: 8e4df49b7f0d34bbd5052bf3f5ea0213
     Pseudo is Ultrasoft, Zval = 12.0
     Generated by new atomic code, or converted to UPF format
     Using radial grid of  851 points,  6 beta functions with: 
                l(1) =   0
                l(2) =   0
                l(3) =   1
                l(4) =   1
                l(5) =   2
                l(6) =   2
     Q(r) pseudized with  8 coefficients,  rinner =    1.000   1.000   1.000
                                                       1.000   1.000

     PseudoPot. # 3 for O  read from file:
     ./O.pbe-n-rrkjus_psl.0.1.UPF
     MD5 check sum: e057bbcf3229fb5d8c36c0c92f9568b4
     Pseudo is Ultrasoft + core correction, Zval =  6.0
     Generated using "atomic" code by A. Dal Corso v.5.0.2 svn rev. 9415
     Using radial grid of 1095 points,  4 beta functions with: 
                l(1) =   0
                l(2) =   0
                l(3) =   1
                l(4) =   1
     Q(r) pseudized with 0 coefficients 


     atomic species   valence    mass     pseudopotential
        Pb            14.00   207.20000     Pb( 1.00)
        Ti            12.00    47.87000     Ti( 1.00)
        O              6.00    16.00000     O ( 1.00)

      8 Sym. Ops. (no inversion) found



   Cartesian axes

     site n.     atom                  positions (alat units)
         1           Pb  tau(   1) = (   0.0000000   0.0000000   0.0000000  )
         2           Ti  tau(   2) = (   0.5000000   0.5480000   0.5000000  )
         3           O   tau(   3) = (   0.5000000   0.5000000   0.0000000  )
         4           O   tau(   4) = (   0.5000000   0.0000000   0.5000000  )
         5           O   tau(   5) = (   0.0000000   0.5000000   0.5000000  )

     number of k points=    75  Marzari-Vanderbilt smearing, width (Ry)=  0.0250
                       cart. coord. in units 2pi/alat
        k(    1) = (   0.0500000   0.0500000   0.0500000), wk =   0.0160000
        k(    2) = (   0.0500000   0.0500000   0.1500000), wk =   0.0320000
        k(    3) = (   0.0500000   0.0500000   0.2500000), wk =   0.0320000
        k(    4) = (   0.0500000   0.0500000   0.3500000), wk =   0.0320000
        k(    5) = (   0.0500000   0.0500000   0.4500000), wk =   0.0320000
        k(    6) = (   0.0500000   0.1500000   0.1500000), wk =   0.0320000
        k(    7) = (   0.0500000   0.1500000   0.2500000), wk =   0.0320000
        k(    8) = (   0.0500000   0.1500000   0.3500000), wk =   0.0320000
        k(    9) = (   0.0500000   0.1500000   0.4500000), wk =   0.0320000
        k(   10) = (   0.0500000   0.2500000   0.2500000), wk =   0.0320000
        k(   11) = (   0.0500000   0.2500000   0.3500000), wk =   0.0320000
        k(   12) = (   0.0500000   0.2500000   0.4500000), wk =   0.0320000
        k(   13) = (   0.0500000   0.3500000   0.3500000), wk =   0.0320000
        k(   14) = (   0.0500000   0.3500000   0.4500000), wk =   0.0320000
        k(   15) = (   0.0500000   0.4500000   0.4500000), wk =   0.0320000
        k(   16) = (   0.1500000   0.1500000   0.1500000), wk =   0.0160000
        k(   17) = (   0.1500000   0.1500000   0.2500000), wk =   0.0320000
        k(   18) = (   0.1500000   0.1500000   0.3500000), wk =   0.0320000
        k(   19) = (   0.1500000   0.1500000   0.4500000), wk =   0.0320000
        k(   20) = (   0.1500000   0.2500000   0.2500000), wk =   0.0320000
        k(   21) = (   0.1500000   0.2500000   0.3500000), wk =   0.0320000
        k(   22) = (   0.1500000   0.2500000   0.4500000), wk =   0.0320000
        k(   23) = (   0.1500000   0.3500000   0.3500000), wk =   0.0320000
        k(   24) = (   0.1500000   0.3500000   0.4500000), wk =   0.0320000
        k(   25) = (   0.1500000   0.4500000   0.4500000), wk =   0.0320000
        k(   26) = (   0.2500000   0.2500000   0.2500000), wk =   0.0160000
        k(   27) = (   0.2500000   0.2500000   0.3500000), wk =   0.0320000
        k(   28) = (   0.2500000   0.2500000   0.4500000), wk =   0.0320000
        k(   29) = (   0.2500000   0.3500000   0.3500000), wk =   0.0320000
        k(   30) = (   0.2500000   0.3500000   0.4500000), wk =   0.0320000
        k(   31) = (   0.2500000   0.4500000   0.4500000), wk =   0.0320000
        k(   32) = (   0.3500000   0.3500000   0.3500000), wk =   0.0160000
        k(   33) = (   0.3500000   0.3500000   0.4500000), wk =   0.0320000
        k(   34) = (   0.3500000   0.4500000   0.4500000), wk =   0.0320000
        k(   35) = (   0.4500000   0.4500000   0.4500000), wk =   0.0160000
        k(   36) = (  -0.0500000   0.1500000   0.0500000), wk =   0.0160000
        k(   37) = (  -0.0500000   0.2500000   0.0500000), wk =   0.0160000
        k(   38) = (  -0.0500000   0.3500000   0.0500000), wk =   0.0160000
        k(   39) = (  -0.0500000   0.4500000   0.0500000), wk =   0.0160000
        k(   40) = (   0.1500000   0.0500000   0.1500000), wk =   0.0160000
        k(   41) = (  -0.0500000   0.2500000   0.1500000), wk =   0.0320000
        k(   42) = (   0.2500000   0.0500000   0.1500000), wk =   0.0320000
        k(   43) = (  -0.0500000   0.3500000   0.1500000), wk =   0.0320000
        k(   44) = (   0.3500000   0.0500000   0.1500000), wk =   0.0320000
        k(   45) = (  -0.0500000   0.4500000   0.1500000), wk =   0.0320000
        k(   46) = (   0.4500000   0.0500000   0.1500000), wk =   0.0320000
        k(   47) = (   0.2500000   0.0500000   0.2500000), wk =   0.0160000
        k(   48) = (  -0.0500000   0.3500000   0.2500000), wk =   0.0320000
        k(   49) = (   0.3500000   0.0500000   0.2500000), wk =   0.0320000
        k(   50) = (  -0.0500000   0.4500000   0.2500000), wk =   0.0320000
        k(   51) = (   0.4500000   0.0500000   0.2500000), wk =   0.0320000
        k(   52) = (   0.3500000   0.0500000   0.3500000), wk =   0.0160000
        k(   53) = (  -0.0500000   0.4500000   0.3500000), wk =   0.0320000
        k(   54) = (   0.4500000   0.0500000   0.3500000), wk =   0.0320000
        k(   55) = (   0.4500000   0.0500000   0.4500000), wk =   0.0160000
        k(   56) = (  -0.1500000   0.2500000   0.1500000), wk =   0.0160000
        k(   57) = (  -0.1500000   0.3500000   0.1500000), wk =   0.0160000
        k(   58) = (  -0.1500000   0.4500000   0.1500000), wk =   0.0160000
        k(   59) = (   0.2500000   0.1500000   0.2500000), wk =   0.0160000
        k(   60) = (  -0.1500000   0.3500000   0.2500000), wk =   0.0320000
        k(   61) = (   0.3500000   0.1500000   0.2500000), wk =   0.0320000
        k(   62) = (  -0.1500000   0.4500000   0.2500000), wk =   0.0320000
        k(   63) = (   0.4500000   0.1500000   0.2500000), wk =   0.0320000
        k(   64) = (   0.3500000   0.1500000   0.3500000), wk =   0.0160000
        k(   65) = (  -0.1500000   0.4500000   0.3500000), wk =   0.0320000
        k(   66) = (   0.4500000   0.1500000   0.3500000), wk =   0.0320000
        k(   67) = (   0.4500000   0.1500000   0.4500000), wk =   0.0160000
        k(   68) = (  -0.2500000   0.3500000   0.2500000), wk =   0.0160000
        k(   69) = (  -0.2500000   0.4500000   0.2500000), wk =   0.0160000
        k(   70) = (   0.3500000   0.2500000   0.3500000), wk =   0.0160000
        k(   71) = (  -0.2500000   0.4500000   0.3500000), wk =   0.0320000
        k(   72) = (   0.4500000   0.2500000   0.3500000), wk =   0.0320000
        k(   73) = (   0.4500000   0.2500000   0.4500000), wk =   0.0160000
        k(   74) = (  -0.3500000   0.4500000   0.3500000), wk =   0.0160000
        k(   75) = (   0.4500000   0.3500000   0.4500000), wk =   0.0160000

     Dense  grid:   142945 G-vectors     FFT dimensions: (  72,  72,  72)

     Smooth grid:    36137 G-vectors     FFT dimensions: (  45,  45,  45)

     Estimated max dynamical RAM per process >     679.30 MB

     Check: negative core charge=   -0.000006

     Initial potential from superposition of free atoms

     starting charge   42.99760, renormalised to   44.00000
     Starting wfcs are   31 randomized atomic wfcs

     total cpu time spent up to now is       15.3 secs

     Self-consistent Calculation

     iteration #  1     ecut=    80.00 Ry     beta= 0.70
     Davidson diagonalization with overlap
     ethr =  1.00E-02,  avg # of iterations =  2.0

     total cpu time spent up to now is       44.2 secs

     total energy              =    -364.39954700 Ry
     Harris-Foulkes estimate   =    -365.24858393 Ry
     estimated scf accuracy    <       1.07092711 Ry

     iteration #  2     ecut=    80.00 Ry     beta= 0.70
     Davidson diagonalization with overlap
     ethr =  2.43E-03,  avg # of iterations =  4.1

     total cpu time spent up to now is       85.3 secs

     total energy              =    -364.06537036 Ry
     Harris-Foulkes estimate   =    -365.43196476 Ry
     estimated scf accuracy    <       3.71948198 Ry

     iteration #  3     ecut=    80.00 Ry     beta= 0.70
     Davidson diagonalization with overlap
     ethr =  2.43E-03,  avg # of iterations =  4.0

     total cpu time spent up to now is      124.2 secs

     total energy              =    -364.88030019 Ry
     Harris-Foulkes estimate   =    -365.00594641 Ry
     estimated scf accuracy    <       0.32969996 Ry

     iteration #  4     ecut=    80.00 Ry     beta= 0.70
     Davidson diagonalization with overlap
     ethr =  7.49E-04,  avg # of iterations =  4.0

     total cpu time spent up to now is      154.1 secs

     total energy              =    -364.89182460 Ry
     Harris-Foulkes estimate   =    -364.91080254 Ry
     estimated scf accuracy    <       0.04929531 Ry

     iteration #  5     ecut=    80.00 Ry     beta= 0.70
     Davidson diagonalization with overlap
     ethr =  1.12E-04,  avg # of iterations =  3.9

     total cpu time spent up to now is      191.0 secs

     total energy              =    -364.90886888 Ry
     Harris-Foulkes estimate   =    -364.90976041 Ry
     estimated scf accuracy    <       0.00384841 Ry

     iteration #  6     ecut=    80.00 Ry     beta= 0.70
     Davidson diagonalization with overlap
     ethr =  8.75E-06,  avg # of iterations =  3.0

     total cpu time spent up to now is      220.1 secs

     total energy              =    -364.90889474 Ry
     Harris-Foulkes estimate   =    -364.90925990 Ry
     estimated scf accuracy    <       0.00106301 Ry

     iteration #  7     ecut=    80.00 Ry     beta= 0.70
     Davidson diagonalization with overlap
     ethr =  2.42E-06,  avg # of iterations =  3.7

     total cpu time spent up to now is      251.9 secs

     total energy              =    -364.90909395 Ry
     Harris-Foulkes estimate   =    -364.90911810 Ry
     estimated scf accuracy    <       0.00004769 Ry

     iteration #  8     ecut=    80.00 Ry     beta= 0.70
     Davidson diagonalization with overlap
     ethr =  1.08E-07,  avg # of iterations =  3.4

     total cpu time spent up to now is      290.5 secs

     total energy              =    -364.90911036 Ry
     Harris-Foulkes estimate   =    -364.90911680 Ry
     estimated scf accuracy    <       0.00002357 Ry

     iteration #  9     ecut=    80.00 Ry     beta= 0.70
     Davidson diagonalization with overlap
     ethr =  5.36E-08,  avg # of iterations =  2.3

     total cpu time spent up to now is      317.5 secs

     total energy              =    -364.90911158 Ry
     Harris-Foulkes estimate   =    -364.90911248 Ry
     estimated scf accuracy    <       0.00000282 Ry

     iteration # 10     ecut=    80.00 Ry     beta= 0.70
     Davidson diagonalization with overlap
     ethr =  6.41E-09,  avg # of iterations =  3.0

     total cpu time spent up to now is      351.3 secs

     total energy              =    -364.90911241 Ry
     Harris-Foulkes estimate   =    -364.90911245 Ry
     estimated scf accuracy    <       0.00000010 Ry

     iteration # 11     ecut=    80.00 Ry     beta= 0.70
     Davidson diagonalization with overlap
     ethr =  2.35E-10,  avg # of iterations =  3.0

     total cpu time spent up to now is      386.6 secs

     total energy              =    -364.90911243 Ry
     Harris-Foulkes estimate   =    -364.90911244 Ry
     estimated scf accuracy    <       0.00000001 Ry

     iteration # 12     ecut=    80.00 Ry     beta= 0.70
     Davidson diagonalization with overlap
     ethr =  2.52E-11,  avg # of iterations =  3.1

     total cpu time spent up to now is      420.3 secs

     End of self-consistent calculation

          k = 0.0500 0.0500 0.0500 (  4505 PWs)   bands (ev):

   -43.6630 -20.1699 -19.9923 -19.9922  -5.9181  -4.6969  -4.5709  -2.8987
    -2.8743  -2.8737  -2.7315  -2.7238   6.6126   8.3412   8.4086   8.6757
    10.3858  10.4042  10.8258  11.1363  11.4095  11.4280  14.7078  15.2695
    15.2777  17.5279

          k = 0.0500 0.0500 0.1500 (  4525 PWs)   bands (ev):

   -43.6626 -20.1692 -20.0115 -19.9915  -5.8135  -4.6532  -4.5241  -2.9120
    -2.8878  -2.8731  -2.7719  -2.7148   6.1418   8.4072   8.4984   8.9814
    10.1911  10.3291  10.8127  10.9889  11.2395  11.4233  15.0906  15.2773
    15.3878  17.7459

          k = 0.0500 0.0500 0.2500 (  4518 PWs)   bands (ev):

   -43.6619 -20.1679 -20.0424 -19.9903  -5.6405  -4.5786  -4.4457  -2.9346
    -2.9103  -2.8717  -2.8411  -2.6992   5.6287   8.4975   8.5890   8.8904
    10.0993  10.1500  10.7459  10.8957  11.1808  11.5357  15.2765  15.6484
    15.7759  17.7182

          k = 0.0500 0.0500 0.3500 (  4521 PWs)   bands (ev):

   -43.6612 -20.1667 -20.0731 -19.9892  -5.4625  -4.4965  -4.3653  -2.9684
    -2.9357  -2.9009  -2.8702  -2.6858   5.2574   8.1346   8.7436   8.9471
     9.8212   9.9683  10.6396  10.8175  11.2733  12.0984  15.2752  16.1577
    16.2581  16.7344

          k = 0.0500 0.0500 0.4500 (  4510 PWs)   bands (ev):

   -43.6608 -20.1659 -20.0919 -19.9884  -5.3497  -4.4400  -4.3157  -3.0071
    -2.9517  -2.9228  -2.8694  -2.6787   5.0751   7.7860   8.8709   9.1511
     9.5660   9.7550  10.5847  10.8094  11.3190  12.6921  15.2577  15.9036
    16.4606  16.5891

          k = 0.0500 0.1500 0.1500 (  4521 PWs)   bands (ev):

   -43.6621 -20.1887 -20.0107 -19.9907  -5.6928  -4.6132  -4.4903  -2.9133
    -2.9062  -2.8852  -2.7598  -2.7341   5.8153   8.3630   8.4553   9.2245
     9.9722  10.1690  10.7313  10.9170  11.2116  11.5205  15.0895  15.5747
    15.6603  17.8799

          k = 0.0500 0.1500 0.2500 (  4518 PWs)   bands (ev):

   -43.6615 -20.1874 -20.0415 -19.9895  -5.5244  -4.5509  -4.4151  -2.9423
    -2.9222  -2.8844  -2.7934  -2.7184   5.4095   8.3478   8.5771   9.0495
     9.8565  10.0128  10.5827  10.9495  10.9673  11.7700  15.5558  15.6621
    15.9816  17.8179

          k = 0.0500 0.1500 0.3500 (  4513 PWs)   bands (ev):

   -43.6608 -20.1860 -20.0720 -19.9884  -5.3542  -4.4910  -4.3277  -2.9727
    -2.9382  -2.8836  -2.8261  -2.7050   5.0870   8.0924   8.6805   8.9703
     9.6060   9.8370  10.5872  10.8965  10.9453  12.1632  15.5625  16.1492
    16.3990  16.9224

          k = 0.0500 0.1500 0.4500 (  4506 PWs)   bands (ev):

   -43.6603 -20.1852 -20.0908 -19.9876  -5.2486  -4.4539  -4.2675  -2.9943
    -2.9515  -2.8830  -2.8381  -2.7011   4.9209   7.7892   8.7282   9.1619
     9.4431   9.5716  10.6194  10.9140  10.9403  12.4775  15.5378  16.3467
    16.4508  16.6931

          k = 0.0500 0.2500 0.2500 (  4520 PWs)   bands (ev):

   -43.6608 -20.2186 -20.0400 -19.9883  -5.3385  -4.5028  -4.3563  -2.9512
    -2.9267  -2.8999  -2.7500  -2.7405   5.0862   8.1767   8.6033   8.9184
     9.6520   9.7229  10.2717  10.9411  11.1804  11.9990  15.6234  16.0430
    16.3092  17.6563

          k = 0.0500 0.2500 0.3500 (  4508 PWs)   bands (ev):

   -43.6601 -20.2170 -20.0704 -19.9870  -5.1955  -4.4605  -4.2556  -2.9648
    -2.9373  -2.9013  -2.7604  -2.7111   4.8255   8.0228   8.5762   8.8039
     9.3338   9.7494  10.1583  10.7591  11.3193  12.0816  16.0005  16.1454
    16.6143  17.2716

          k = 0.0500 0.2500 0.4500 (  4499 PWs)   bands (ev):

   -43.6596 -20.2161 -20.0890 -19.9863  -5.1152  -4.4295  -4.1829  -2.9742
    -2.9501  -2.9023  -2.7467  -2.7076   4.6827   7.7882   8.5842   8.7514
     9.2470   9.6803  10.1740  10.7145  11.3699  12.0895  16.0049  16.4156
    16.8457  17.0421

          k = 0.0500 0.3500 0.3500 (  4507 PWs)   bands (ev):

   -43.6594 -20.2477 -20.0687 -19.9857  -5.0751  -4.3745  -4.1781  -2.9632
    -2.9402  -2.9114  -2.7786  -2.6399   4.5818   7.8102   8.2879   8.7538
     9.2001   9.6126  10.0221  10.7198  11.5253  11.9638  16.0892  16.4888
    16.8334  17.6518

          k = 0.0500 0.3500 0.4500 (  4503 PWs)   bands (ev):

   -43.6590 -20.2467 -20.0872 -19.9850  -5.0392  -4.3257  -4.0904  -2.9652
    -2.9488  -2.9142  -2.7859  -2.5947   4.4584   7.7211   8.0765   8.8208
     8.9866   9.7744   9.9035  10.6103  11.5271  11.8856  16.3718  16.4828
    17.0310  17.6925

          k = 0.0500 0.4500 0.4500 (  4506 PWs)   bands (ev):

   -43.6585 -20.2654 -20.0861 -19.9841  -5.0212  -4.2205  -4.0289  -2.9687
    -2.9484  -2.9203  -2.8084  -2.5268   4.3263   7.4943   7.9394   8.7731
     8.9541   9.6515   9.9811  10.5673  11.2531  12.0671  16.3468  16.7737
    17.1558  18.1086

          k = 0.1500 0.1500 0.1500 (  4506 PWs)   bands (ev):

   -43.6617 -20.1879 -20.0102 -20.0095  -5.5929  -4.5781  -4.4526  -2.9275
    -2.9145  -2.8878  -2.7466  -2.7385   5.6120   8.2746   8.3750   9.3588
     9.8275  10.0105  10.6825  10.9833  11.2405  11.4337  15.3637  15.6393
    15.6751  18.4305

          k = 0.1500 0.1500 0.2500 (  4515 PWs)   bands (ev):

   -43.6610 -20.1866 -20.0406 -20.0086  -5.4327  -4.5230  -4.3823  -2.9514
    -2.9172  -2.8857  -2.7690  -2.7175   5.3029   8.2327   8.3194   9.0804
     9.6156   9.8963  10.7283  10.9857  11.1111  11.6764  15.5960  15.8121
    15.9735  17.7206

          k = 0.1500 0.1500 0.3500 (  4502 PWs)   bands (ev):

   -43.6603 -20.1852 -20.0711 -20.0073  -5.2763  -4.4697  -4.2974  -2.9707
    -2.9067  -2.8824  -2.8013  -2.7045   5.0282   8.0649   8.2658   8.7829
     9.4763   9.9479  10.4594  11.0356  11.1180  12.0169  15.5238  16.1986
    16.3870  17.1384

          k = 0.1500 0.1500 0.4500 (  4508 PWs)   bands (ev):

   -43.6599 -20.1844 -20.0898 -20.0065  -5.1830  -4.4375  -4.2360  -2.9777
    -2.8963  -2.8799  -2.8244  -2.7027   4.8782   7.7961   8.2063   8.7958
     9.4359  10.0249  10.2019  11.0966  11.1148  12.2094  15.4415  16.4564
    16.6768  16.8593

          k = 0.1500 0.2500 0.2500 (  4503 PWs)   bands (ev):

   -43.6603 -20.2177 -20.0391 -20.0072  -5.2404  -4.4815  -4.3535  -2.9543
    -2.9308  -2.8727  -2.7286  -2.7171   5.0768   8.0191   8.1542   8.8824
     9.3041   9.7707  10.6060  11.0653  11.2299  11.8191  15.6622  16.0315
    16.2463  17.5034

          k = 0.1500 0.2500 0.3500 (  4503 PWs)   bands (ev):

   -43.6596 -20.2162 -20.0695 -20.0060  -5.1000  -4.4605  -4.2602  -2.9589
    -2.9157  -2.8636  -2.7326  -2.6912   4.8750   7.9328   8.0609   8.5105
     8.9978   9.8417  10.7026  10.8215  11.3503  11.8259  15.8007  16.1720
    16.5383  17.4635

          k = 0.1500 0.2500 0.4500 (  4499 PWs)   bands (ev):

   -43.6592 -20.2153 -20.0881 -20.0052  -5.0224  -4.4492  -4.1870  -2.9566
    -2.9010  -2.8657  -2.7200  -2.6917   4.7547   7.7758   7.9933   8.3243
     8.9424   9.9472  10.4948  10.8993  11.3927  11.7396  15.8174  16.3818
    16.7817  17.4880

          k = 0.1500 0.3500 0.3500 (  4508 PWs)   bands (ev):

   -43.6590 -20.2469 -20.0678 -20.0046  -4.9610  -4.4003  -4.2217  -2.9535
    -2.9077  -2.8387  -2.7366  -2.6220   4.6999   7.6895   7.9878   8.2617
     8.6005   9.8263  10.5573  10.9008  11.3793  11.7484  15.9638  16.3805
    16.7281  17.8246

          k = 0.1500 0.3500 0.4500 (  4514 PWs)   bands (ev):

   -43.6585 -20.2458 -20.0863 -20.0038  -4.9230  -4.3796  -4.1379  -2.9470
    -2.8804  -2.8478  -2.7411  -2.5770   4.6065   7.6567   7.9260   8.0533
     8.3861   9.9072  10.6533  10.7176  11.1250  11.8280  16.2463  16.3835
    16.9101  18.0589

          k = 0.1500 0.4500 0.4500 (  4512 PWs)   bands (ev):

   -43.6581 -20.2646 -20.0853 -20.0030  -4.9005  -4.2874  -4.1086  -2.9428
    -2.8582  -2.8191  -2.7790  -2.5071   4.5065   7.4240   7.8846   8.0377
     8.1606   9.9154  10.5088  10.6819  10.8758  12.0246  16.3348  16.6186
    17.0192  18.4226

          k = 0.2500 0.2500 0.2500 (  4485 PWs)   bands (ev):

   -43.6596 -20.2163 -20.0382 -20.0373  -5.0940  -4.4473  -4.3325  -2.9367
    -2.9324  -2.8375  -2.7033  -2.6830   5.0250   7.7322   7.8734   8.7143
     9.1121   9.2980  10.8906  11.2775  11.4249  11.5334  15.6355  16.2132
    16.2192  17.5453

          k = 0.2500 0.2500 0.3500 (  4503 PWs)   bands (ev):

   -43.6590 -20.2149 -20.0680 -20.0364  -4.9720  -4.4290  -4.2652  -2.9284
    -2.9066  -2.7951  -2.6857  -2.6601   4.9307   7.5709   7.6914   8.3030
     8.8344   9.2585  10.9378  11.2213  11.3634  11.6147  15.7169  16.2727
    16.5303  17.7841

          k = 0.2500 0.2500 0.4500 (  4503 PWs)   bands (ev):

   -43.6585 -20.2140 -20.0865 -20.0355  -4.9126  -4.4268  -4.1950  -2.9207
    -2.8888  -2.7526  -2.6773  -2.6608   4.8570   7.4502   7.6871   7.9206
     8.7857   9.2987  10.7593  11.2254  11.2958  11.6683  15.8686  16.3584
    16.7722  18.0442

          k = 0.2500 0.3500 0.3500 (  4511 PWs)   bands (ev):

   -43.6583 -20.2455 -20.0664 -20.0350  -4.7893  -4.4232  -4.2829  -2.9154
    -2.8783  -2.7444  -2.6543  -2.5871   4.9016   7.2801   7.4978   8.0666
     8.4505   9.1216  10.5019  11.2923  11.5267  11.6890  15.9078  16.4426
    16.6783  18.1725

          k = 0.2500 0.3500 0.4500 (  4513 PWs)   bands (ev):

   -43.6579 -20.2445 -20.0849 -20.0342  -4.7474  -4.4382  -4.2066  -2.9046
    -2.8504  -2.7150  -2.6440  -2.5428   4.8816   7.2846   7.3347   7.8333
     8.2263   9.1495  10.1382  11.2898  11.5117  11.8200  16.2119  16.4253
    16.8557  18.5359

          k = 0.2500 0.4500 0.4500 (  4521 PWs)   bands (ev):

   -43.6574 -20.2632 -20.0839 -20.0333  -4.7023  -4.3793  -4.2152  -2.8973
    -2.8195  -2.6885  -2.6296  -2.4694   4.8640   7.0790   7.3772   7.6590
     7.9842   9.1252   9.6317  11.2822  11.5598  11.9938  16.4068  16.5861
    16.9540  18.9012

          k = 0.3500 0.3500 0.3500 (  4518 PWs)   bands (ev):

   -43.6576 -20.2440 -20.0653 -20.0649  -4.6741  -4.4014  -4.3163  -2.8751
    -2.8576  -2.6539  -2.5722  -2.5420   5.1047   6.9629   7.1010   7.9572
     8.4430   8.4455   9.7987  11.5889  11.6839  11.8779  16.1104  16.6508
    16.6602  18.5884

          k = 0.3500 0.3500 0.4500 (  4511 PWs)   bands (ev):

   -43.6572 -20.2431 -20.0835 -20.0642  -4.6512  -4.4022  -4.2677  -2.8589
    -2.8380  -2.5884  -2.5403  -2.5005   5.2141   6.8534   6.9220   7.7639
     8.1848   8.4631   9.2618  11.6394  11.7749  12.0106  16.4004  16.5969
    16.8566  18.9977

          k = 0.3500 0.4500 0.4500 (  4526 PWs)   bands (ev):

   -43.6568 -20.2618 -20.0826 -20.0633  -4.5149  -4.4437  -4.3041  -2.8521
    -2.8120  -2.5516  -2.4804  -2.4225   5.3786   6.6590   6.8589   7.5816
     7.9697   8.3933   8.5809  11.7461  11.9685  12.0083  16.6164  16.7363
    16.9294  19.3929

          k = 0.4500 0.4500 0.4500 (  4548 PWs)   bands (ev):

   -43.6563 -20.2610 -20.0818 -20.0818  -4.5147  -4.3668  -4.3482  -2.8266
    -2.8061  -2.4681  -2.3940  -2.3874   5.9272   6.4471   6.5632   7.5154
     7.7028   7.9418   8.0515  11.9533  11.9654  12.1991  16.8285  16.9075
    16.9132  19.7850

          k =-0.0500 0.1500 0.0500 (  4525 PWs)   bands (ev):

   -43.6626 -20.1895 -19.9915 -19.9914  -5.7957  -4.6534  -4.5311  -2.8978
    -2.8899  -2.8854  -2.7679  -2.7205   6.1287   8.3759   8.3969   9.0163
    10.2097  10.2235  10.8154  10.9614  11.4425  11.4464  14.7082  15.5639
    15.5818  17.5297

          k =-0.0500 0.2500 0.0500 (  4518 PWs)   bands (ev):

   -43.6619 -20.2210 -19.9903 -19.9902  -5.5894  -4.5837  -4.4619  -2.9202
    -2.9030  -2.8959  -2.8391  -2.7044   5.5884   8.4102   8.4233   8.8349
     9.9836   9.9941  10.7684  11.1428  11.4974  11.6410  14.7088  16.0255
    16.0512  17.5330

          k =-0.0500 0.3500 0.0500 (  4521 PWs)   bands (ev):

   -43.6612 -20.2521 -19.9890 -19.9889  -5.3704  -4.5168  -4.3849  -2.9715
    -2.9185  -2.8968  -2.8945  -2.6904   5.1873   8.0639   8.4563   8.6703
     9.7933   9.8333  10.7095  11.3650  11.5558  12.2196  14.7082  16.4771
    16.5045  16.8639

          k =-0.0500 0.4500 0.0500 (  4510 PWs)   bands (ev):

   -43.6607 -20.2712 -19.9882 -19.9882  -5.2265  -4.4785  -4.3322  -3.0210
    -2.9273  -2.9198  -2.8936  -2.6828   4.9849   7.6842   8.4675   8.6911
     9.6905   9.7566  10.6709  11.4435  11.5945  12.8321  14.7043  16.0035
    16.7541  16.7892

          k = 0.1500 0.0500 0.1500 (  4521 PWs)   bands (ev):

   -43.6621 -20.1684 -20.0111 -20.0103  -5.7137  -4.6146  -4.4769  -2.9268
    -2.8884  -2.8844  -2.7669  -2.7313   5.8350   8.3438   8.5625   9.1976
     9.9813  10.1159  10.8591  10.8902  11.1990  11.4627  15.3302  15.4032
    15.4285  18.1180

          k =-0.0500 0.2500 0.1500 (  4518 PWs)   bands (ev):

   -43.6614 -20.2201 -20.0093 -19.9895  -5.4919  -4.5481  -4.4313  -2.9402
    -2.9104  -2.9000  -2.7908  -2.7229   5.3842   8.2602   8.4873   9.0555
     9.7099   9.9593  10.6581  10.9629  11.2641  11.8283  15.0859  16.0324
    16.0910  17.8896

          k = 0.2500 0.0500 0.1500 (  4518 PWs)   bands (ev):

   -43.6615 -20.1672 -20.0416 -20.0094  -5.5522  -4.5463  -4.3974  -2.9468
    -2.9049  -2.8846  -2.8048  -2.7210   5.4311   8.3487   8.6244   9.0335
     9.7804   9.8953  10.7061  10.9693  11.2230  11.6315  15.3708  15.7557
    15.8676  17.9315

          k =-0.0500 0.3500 0.1500 (  4513 PWs)   bands (ev):

   -43.6608 -20.2511 -20.0080 -19.9882  -5.2839  -4.4802  -4.3673  -2.9780
    -2.9153  -2.9071  -2.8247  -2.7093   5.0333   7.9607   8.4330   8.8777
     9.5248   9.8092  10.7640  10.9624  11.3239  12.2842  15.0749  16.4723
    16.5104  17.0632

          k = 0.3500 0.0500 0.1500 (  4513 PWs)   bands (ev):

   -43.6608 -20.1659 -20.0721 -20.0082  -5.3927  -4.4658  -4.3154  -2.9712
    -2.9171  -2.8837  -2.8510  -2.7075   5.1069   8.1201   8.5873   9.0035
     9.5453   9.8841  10.3979  10.9794  11.2946  12.1043  15.3468  16.2180
    16.3220  16.9611

          k =-0.0500 0.4500 0.1500 (  4506 PWs)   bands (ev):

   -43.6603 -20.2701 -20.0071 -19.9874  -5.1522  -4.4338  -4.3266  -3.0074
    -2.9244  -2.9071  -2.8369  -2.7049   4.8476   7.6309   8.3809   8.9047
     9.4157   9.7361  10.8538  10.9462  11.3626  12.6349  15.0567  16.4336
    16.7613  16.8178

          k = 0.4500 0.0500 0.1500 (  4506 PWs)   bands (ev):

   -43.6603 -20.1651 -20.0908 -20.0074  -5.2964  -4.4061  -4.2651  -2.9922
    -2.9249  -2.8831  -2.8731  -2.7023   4.9389   7.7973   8.6204   9.1311
     9.4597   9.7275  10.2926  10.9553  11.3332  12.5005  15.2948  16.3816
    16.5199  16.6249

          k = 0.2500 0.0500 0.2500 (  4520 PWs)   bands (ev):

   -43.6608 -20.1659 -20.0407 -20.0395  -5.4190  -4.4788  -4.3152  -2.9484
    -2.9079  -2.8975  -2.7673  -2.7515   5.1352   8.2684   8.6574   8.9382
     9.4028   9.5999  10.6269  10.9771  11.3739  11.7701  15.6597  15.8225
    16.1867  17.6950

          k =-0.0500 0.3500 0.2500 (  4508 PWs)   bands (ev):

   -43.6601 -20.2494 -20.0385 -19.9870  -5.1630  -4.4329  -4.2932  -2.9677
    -2.9285  -2.9112  -2.7597  -2.7128   4.7980   7.8680   8.5347   8.7445
     9.4240   9.6488  10.2184  10.9733  11.2854  12.1832  15.6056  16.4919
    16.6184  17.3902

          k = 0.3500 0.0500 0.2500 (  4508 PWs)   bands (ev):

   -43.6601 -20.1647 -20.0705 -20.0386  -5.3025  -4.3840  -4.2297  -2.9553
    -2.9149  -2.9007  -2.7783  -2.7376   4.8705   8.1045   8.4886   8.7880
     9.2554   9.6024  10.3271  10.9990  11.4737  12.0072  15.6886  16.2226
    16.5184  17.3034

          k =-0.0500 0.4500 0.2500 (  4499 PWs)   bands (ev):

   -43.6596 -20.2684 -20.0375 -19.9862  -5.0663  -4.3616  -4.2613  -2.9846
    -2.9278  -2.9221  -2.7487  -2.7065   4.6364   7.5650   8.4363   8.7426
     9.3261   9.6229  10.2593  11.0059  11.2930  12.2711  15.5903  16.7669
    16.7905  17.2627

          k = 0.4500 0.0500 0.2500 (  4499 PWs)   bands (ev):

   -43.6597 -20.1639 -20.0891 -20.0378  -5.2411  -4.3058  -4.1778  -2.9666
    -2.9228  -2.9027  -2.7660  -2.7401   4.7231   7.8157   8.4872   8.6732
     9.3090   9.6776  10.0536  11.0569  11.4501  12.1777  15.6617  16.5304
    16.7474  17.0542

          k = 0.3500 0.0500 0.3500 (  4507 PWs)   bands (ev):

   -43.6594 -20.1634 -20.0693 -20.0685  -5.2428  -4.2575  -4.1383  -2.9464
    -2.9212  -2.9047  -2.7865  -2.6924   4.6463   8.1172   8.1413   8.6914
     8.8763   9.6715  10.2636  10.7745  11.7915  11.8637  16.0918  16.2750
    16.7346  17.5989

          k =-0.0500 0.4500 0.3500 (  4503 PWs)   bands (ev):

   -43.6590 -20.2666 -20.0676 -19.9849  -5.0267  -4.2788  -4.1337  -2.9705
    -2.9411  -2.9210  -2.7866  -2.5937   4.4400   7.5217   8.2266   8.6505
     9.2281   9.5211  10.0313  10.7204  11.4375  12.0127  16.0766  16.7745
    16.9930  17.8826

          k = 0.4500 0.0500 0.3500 (  4503 PWs)   bands (ev):

   -43.6590 -20.1626 -20.0874 -20.0679  -5.2198  -4.1535  -4.0823  -2.9497
    -2.9223  -2.9135  -2.7952  -2.6533   4.5150   7.8193   8.1720   8.5232
     8.8411   9.8319  10.0662  10.7321  11.6216  12.0631  16.1618  16.5291
    16.8929  17.6816

          k = 0.4500 0.0500 0.4500 (  4506 PWs)   bands (ev):

   -43.6585 -20.1618 -20.0864 -20.0863  -5.2190  -4.0368  -4.0186  -2.9484
    -2.9218  -2.9174  -2.8227  -2.5914   4.3908   7.7205   7.9963   8.5481
     8.5666   9.9714  10.0681  10.5321  11.4246  12.2453  16.5063  16.5423
    16.9744  18.0497

          k =-0.1500 0.2500 0.1500 (  4515 PWs)   bands (ev):

   -43.6610 -20.2192 -20.0088 -20.0082  -5.3935  -4.5166  -4.4121  -2.9498
    -2.9252  -2.8853  -2.7583  -2.7233   5.2737   8.1485   8.2657   9.0967
     9.6860   9.8425  10.5133  11.0496  11.3018  11.7474  15.3272  16.0381
    16.0915  17.7614

          k =-0.1500 0.3500 0.1500 (  4502 PWs)   bands (ev):

   -43.6603 -20.2501 -20.0074 -20.0070  -5.1902  -4.4498  -4.3700  -2.9780
    -2.9200  -2.8730  -2.7871  -2.7103   4.9702   7.9743   8.0124   8.8639
     9.6130   9.7673  10.4174  11.0711  11.3568  12.1364  15.2502  16.4575
    16.4624  17.2250

          k =-0.1500 0.4500 0.1500 (  4508 PWs)   bands (ev):

   -43.6599 -20.2691 -20.0065 -20.0062  -5.0643  -4.4036  -4.3429  -2.9919
    -2.9166  -2.8577  -2.8095  -2.7090   4.8013   7.6408   7.9263   8.8958
     9.5882   9.6896  10.4077  11.0710  11.3904  12.3434  15.1800  16.6811
    16.7282  17.0032

          k = 0.2500 0.1500 0.2500 (  4503 PWs)   bands (ev):

   -43.6603 -20.1853 -20.0397 -20.0387  -5.2948  -4.4690  -4.3216  -2.9487
    -2.9249  -2.8719  -2.7409  -2.7196   5.1091   8.0606   8.1881   8.8899
     9.2205   9.7214  10.8599  10.9617  11.3920  11.6215  15.7205  15.9485
    16.1458  17.5008

          k =-0.1500 0.3500 0.2500 (  4503 PWs)   bands (ev):

   -43.6596 -20.2485 -20.0376 -20.0059  -5.0576  -4.4228  -4.3226  -2.9635
    -2.9252  -2.8496  -2.7290  -2.6958   4.8445   7.7649   8.0116   8.5206
     9.2115   9.7805  10.3820  11.1563  11.3444  11.9046  15.5796  16.3911
    16.5467  17.5138

          k = 0.3500 0.1500 0.2500 (  4503 PWs)   bands (ev):

   -43.6597 -20.1839 -20.0695 -20.0378  -5.1758  -4.4035  -4.2453  -2.9507
    -2.9136  -2.8506  -2.7441  -2.7096   4.9061   7.9290   8.0909   8.4386
     9.0681   9.7439  10.6646  11.0081  11.4522  11.7733  15.6831  16.2088
    16.4740  17.4603

          k =-0.1500 0.4500 0.2500 (  4499 PWs)   bands (ev):

   -43.6592 -20.2674 -20.0367 -20.0051  -4.9568  -4.3625  -4.3096  -2.9669
    -2.9192  -2.8320  -2.7281  -2.6907   4.7041   7.5441   7.8109   8.4783
     9.2159   9.8382  10.2158  11.2074  11.3633  11.8904  15.5568  16.6464
    16.7787  17.6108

          k = 0.4500 0.1500 0.2500 (  4499 PWs)   bands (ev):

   -43.6592 -20.1831 -20.0881 -20.0369  -5.1142  -4.3599  -4.1847  -2.9493
    -2.9035  -2.8335  -2.7453  -2.7125   4.7834   7.7935   7.9170   8.3109
     9.0583   9.8164  10.4519  11.0718  11.4019  11.8475  15.6653  16.4364
    16.7313  17.4850

          k = 0.3500 0.1500 0.3500 (  4508 PWs)   bands (ev):

   -43.6590 -20.1826 -20.0683 -20.0676  -5.1120  -4.2962  -4.1858  -2.9368
    -2.9029  -2.8257  -2.7316  -2.6736   4.7588   7.8568   7.9225   8.1973
     8.5666   9.7506  10.7843  10.8257  11.3767  11.8659  15.9457  16.2828
    16.6585  17.7898

          k =-0.1500 0.4500 0.3500 (  4514 PWs)   bands (ev):

   -43.6585 -20.2657 -20.0668 -20.0038  -4.9065  -4.3178  -4.2042  -2.9511
    -2.8960  -2.8169  -2.7543  -2.5756   4.5860   7.4496   7.9127   8.0968
     8.5818   9.8549  10.3905  10.9924  11.1315  11.8637  16.0199  16.6250
    16.8945  18.1463

          k = 0.4500 0.1500 0.3500 (  4514 PWs)   bands (ev):

   -43.6585 -20.1818 -20.0865 -20.0670  -5.0896  -4.2226  -4.1333  -2.9307
    -2.8846  -2.8140  -2.7430  -2.6365   4.6604   7.7647   7.8615   7.9422
     8.4561   9.8024  10.6263  10.8893  11.1260  12.0294  16.0896  16.4331
    16.8390  18.0457

          k = 0.4500 0.1500 0.4500 (  4512 PWs)   bands (ev):

   -43.6581 -20.1810 -20.0855 -20.0854  -5.0903  -4.1164  -4.0998  -2.9230
    -2.8497  -2.8009  -2.7771  -2.5736   4.5732   7.6992   7.8142   7.8722
     8.0836   9.8407  10.6843  10.7455  10.8165  12.2362  16.4076  16.4693
    16.9392  18.3839

          k =-0.2500 0.3500 0.2500 (  4503 PWs)   bands (ev):

   -43.6590 -20.2470 -20.0366 -20.0360  -4.9031  -4.4072  -4.3441  -2.9375
    -2.9110  -2.7888  -2.6791  -2.6567   4.8946   7.4357   7.7729   8.2100
     9.0731   9.1730  10.6996  11.4333  11.4820  11.4873  15.6460  16.3770
    16.5494  17.8054

          k =-0.2500 0.4500 0.2500 (  4503 PWs)   bands (ev):

   -43.6585 -20.2658 -20.0356 -20.0352  -4.8010  -4.3617  -4.3516  -2.9338
    -2.8983  -2.7328  -2.6865  -2.6442   4.7974   7.2682   7.6247   8.0094
     9.0623   9.1873  10.5040  11.3818  11.4654  11.5497  15.7355  16.5451
    16.7920  18.1198

          k = 0.3500 0.2500 0.3500 (  4511 PWs)   bands (ev):

   -43.6583 -20.2135 -20.0668 -20.0663  -4.8951  -4.3531  -4.2547  -2.8992
    -2.8862  -2.7304  -2.6365  -2.6322   4.9425   7.3761   7.3767   8.1379
     8.4647   9.0296  10.5662  11.3247  11.3545  11.8708  15.8996  16.4052
    16.6498  18.1585

          k =-0.2500 0.4500 0.3500 (  4513 PWs)   bands (ev):

   -43.6579 -20.2642 -20.0655 -20.0341  -4.7127  -4.3736  -4.2974  -2.9088
    -2.8570  -2.6983  -2.6515  -2.5396   4.8545   7.0816   7.5473   7.6972
     8.3986   9.1053  10.1054  11.2734  11.5663  11.8050  16.0960  16.5666
    16.8563  18.5599

          k = 0.4500 0.2500 0.3500 (  4513 PWs)   bands (ev):

   -43.6579 -20.2126 -20.0850 -20.0656  -4.8735  -4.3195  -4.2047  -2.8895
    -2.8627  -2.6756  -2.6367  -2.5980   4.9231   7.2073   7.3684   7.8225
     8.3545   9.0219  10.1853  11.3436  11.3627  12.0157  16.1570  16.4345
    16.8314  18.5258

          k = 0.4500 0.2500 0.4500 (  4521 PWs)   bands (ev):

   -43.6574 -20.2118 -20.0841 -20.0840  -4.8767  -4.2233  -4.2080  -2.8786
    -2.8338  -2.6370  -2.6239  -2.5387   4.9342   7.1806   7.1961   7.7055
     8.0471   8.9920   9.7230  11.3755  11.3786  12.2217  16.4317  16.5121
    16.9211  18.8791

          k =-0.3500 0.4500 0.3500 (  4511 PWs)   bands (ev):

   -43.6572 -20.2628 -20.0643 -20.0640  -4.5468  -4.4161  -4.3516  -2.8693
    -2.8316  -2.6093  -2.5288  -2.4848   5.1702   6.7366   7.1098   7.6284
     8.3093   8.4390   9.2425  11.6842  11.8221  11.8850  16.3526  16.6730
    16.8613  18.9991

          k = 0.4500 0.3500 0.4500 (  4526 PWs)   bands (ev):

   -43.6568 -20.2423 -20.0827 -20.0826  -4.6563  -4.3138  -4.2984  -2.8338
    -2.8290  -2.5071  -2.4757  -2.4752   5.4460   6.7060   6.7078   7.6506
     8.0487   8.2567   8.6279  11.7782  11.7861  12.2076  16.6308  16.7119
    16.9126  19.3884

     the Fermi energy is    12.6805 ev

!    total energy              =    -364.90911244 Ry
     Harris-Foulkes estimate   =    -364.90911244 Ry
     estimated scf accuracy    <          3.5E-10 Ry

     The total energy is the sum of the following terms:

     one-electron contribution =     -67.93611220 Ry
     hartree contribution      =      66.73355223 Ry
     xc contribution           =     -86.26016756 Ry
     ewald contribution        =    -277.44949973 Ry
     smearing contrib. (-TS)   =       0.00311483 Ry

     convergence has been achieved in  12 iterations

     Forces acting on atoms (cartesian axes, Ry/au):

     atom    1 type  1   force =     0.00000000    0.02457296    0.00000000
     atom    2 type  2   force =     0.00000000   -0.09200068    0.00000000
     atom    3 type  3   force =     0.00000000   -0.00569283    0.00000000
     atom    4 type  3   force =     0.00000000    0.07881339    0.00000000
     atom    5 type  3   force =     0.00000000   -0.00569283    0.00000000

     Total force =     0.121410     Total SCF correction =     0.000013


     Computing stress (Cartesian axis) and pressure

          total   stress  (Ry/bohr**3)                   (kbar)     P=  291.97
   0.00182343   0.00000000   0.00000000        268.24      0.00      0.00
   0.00000000   0.00230749   0.00000000          0.00    339.44      0.00
   0.00000000   0.00000000   0.00182343          0.00      0.00    268.24


     BFGS Geometry Optimization

     number of scf cycles    =   1
     number of bfgs steps    =   0

     energy   new            =    -364.9091124360 Ry

     new trust radius        =       0.0920006848 bohr
     new conv_thr            =       0.0000000100 Ry


ATOMIC_POSITIONS (crystal)
Pb       0.000000000   0.000000000   0.000000000    0   0   0
Ti       0.500000000   0.535222127   0.500000000
O        0.500000000   0.499209329   0.000000000
O        0.500000000   0.010946304   0.500000000
O        0.000000000   0.499209329   0.500000000



     Writing output data file PbTiO3.save/
     NEW-OLD atomic charge density approx. for the potential

     Check: negative core charge=   -0.000005

     total cpu time spent up to now is      440.1 secs

     Self-consistent Calculation

     iteration #  1     ecut=    80.00 Ry     beta= 0.70
     Davidson diagonalization with overlap
     ethr =  1.00E-06,  avg # of iterations =  6.2

     total cpu time spent up to now is      508.2 secs

     total energy              =    -364.91533929 Ry
     Harris-Foulkes estimate   =    -364.91969360 Ry
     estimated scf accuracy    <       0.00622448 Ry

     iteration #  2     ecut=    80.00 Ry     beta= 0.70
     Davidson diagonalization with overlap
     ethr =  1.41E-05,  avg # of iterations =  4.1

     total cpu time spent up to now is      547.5 secs

     total energy              =    -364.91493956 Ry
     Harris-Foulkes estimate   =    -364.91950263 Ry
     estimated scf accuracy    <       0.00975913 Ry

     iteration #  3     ecut=    80.00 Ry     beta= 0.70
     Davidson diagonalization with overlap
     ethr =  1.41E-05,  avg # of iterations =  3.5

     total cpu time spent up to now is      582.7 secs

     total energy              =    -364.91724850 Ry
     Harris-Foulkes estimate   =    -364.91788108 Ry
     estimated scf accuracy    <       0.00171944 Ry

     iteration #  4     ecut=    80.00 Ry     beta= 0.70
     Davidson diagonalization with overlap
     ethr =  3.91E-06,  avg # of iterations =  3.0

     total cpu time spent up to now is      612.1 secs

     total energy              =    -364.91752762 Ry
     Harris-Foulkes estimate   =    -364.91753601 Ry
     estimated scf accuracy    <       0.00001862 Ry

     iteration #  5     ecut=    80.00 Ry     beta= 0.70
     Davidson diagonalization with overlap
     ethr =  4.23E-08,  avg # of iterations =  3.5

     total cpu time spent up to now is      651.5 secs

     total energy              =    -364.91753875 Ry
     Harris-Foulkes estimate   =    -364.91753976 Ry
     estimated scf accuracy    <       0.00000208 Ry

     iteration #  6     ecut=    80.00 Ry     beta= 0.70
     Davidson diagonalization with overlap
     ethr =  4.72E-09,  avg # of iterations =  3.3

     total cpu time spent up to now is      686.7 secs

     total energy              =    -364.91753902 Ry
     Harris-Foulkes estimate   =    -364.91754005 Ry
     estimated scf accuracy    <       0.00000265 Ry

     iteration #  7     ecut=    80.00 Ry     beta= 0.70
     Davidson diagonalization with overlap
     ethr =  4.72E-09,  avg # of iterations =  2.9

     total cpu time spent up to now is      718.1 secs

     total energy              =    -364.91753950 Ry
     Harris-Foulkes estimate   =    -364.91753951 Ry
     estimated scf accuracy    <       0.00000002 Ry

     iteration #  8     ecut=    80.00 Ry     beta= 0.70
     Davidson diagonalization with overlap
     ethr =  5.44E-11,  avg # of iterations =  3.6

     total cpu time spent up to now is      758.3 secs

     End of self-consistent calculation

          k = 0.0500 0.0500 0.0500 (  4505 PWs)   bands (ev):

   -43.8143 -20.1919 -20.1503 -20.1502  -5.9295  -4.6718  -4.6269  -2.8550
    -2.8463  -2.8458  -2.7023  -2.6996   6.6444   8.3549   8.3723   8.6602
    10.6475  10.6630  10.8312  11.2825  11.4112  11.5197  14.5892  14.8443
    14.8443  17.3582

          k = 0.0500 0.0500 0.1500 (  4525 PWs)   bands (ev):

   -43.8139 -20.1912 -20.1693 -20.1495  -5.8209  -4.6312  -4.5787  -2.8688
    -2.8595  -2.8451  -2.7434  -2.6890   6.1746   8.4106   8.4428   8.9830
    10.4280  10.4980  10.8307  11.1342  11.2422  11.5040  14.8443  14.9811
    15.0869  17.4326

          k = 0.0500 0.0500 0.2500 (  4518 PWs)   bands (ev):

   -43.8132 -20.2004 -20.1896 -20.1484  -5.6407  -4.5638  -4.4963  -2.8947
    -2.8793  -2.8436  -2.8117  -2.6727   5.6642   8.4606   8.5702   8.8786
    10.1780  10.2404  10.7778  11.0773  11.2820  11.6024  14.8454  15.5410
    15.5760  17.4278

          k = 0.0500 0.0500 0.3500 (  4521 PWs)   bands (ev):

   -43.8126 -20.2306 -20.1886 -20.1472  -5.4542  -4.4914  -4.4104  -2.9357
    -2.8972  -2.8712  -2.8420  -2.6586   5.2988   8.0822   8.7235   8.8987
     9.8547   9.9371  10.7089  11.0976  11.3977  12.1563  14.8446  16.0581
    16.0892  16.7955

          k = 0.0500 0.0500 0.4500 (  4510 PWs)   bands (ev):

   -43.8121 -20.2492 -20.1879 -20.1465  -5.3354  -4.4428  -4.3562  -2.9769
    -2.9084  -2.8949  -2.8411  -2.6509   5.1231   7.7035   8.8445   9.0878
     9.5973   9.6900  10.6643  11.1319  11.4437  12.7521  14.8396  15.9463
    16.3711  16.4123

          k = 0.0500 0.1500 0.1500 (  4521 PWs)   bands (ev):

   -43.8135 -20.2105 -20.1685 -20.1488  -5.7072  -4.5863  -4.5448  -2.8804
    -2.8669  -2.8570  -2.7334  -2.7059   5.8554   8.3566   8.4738   9.2143
    10.1272  10.3320  10.8170  10.9842  11.2213  11.5151  14.9774  15.1960
    15.3782  17.6746

          k = 0.0500 0.1500 0.2500 (  4518 PWs)   bands (ev):

   -43.8128 -20.2095 -20.1989 -20.1476  -5.5328  -4.5329  -4.4613  -2.9088
    -2.8822  -2.8563  -2.7662  -2.6919   5.4500   8.3286   8.5879   9.0418
     9.8920  10.1026  10.6506  11.0323  11.0828  11.7782  15.1881  15.5468
    15.7808  17.7307

          k = 0.0500 0.1500 0.3500 (  4513 PWs)   bands (ev):

   -43.8121 -20.2296 -20.2078 -20.1464  -5.3566  -4.4775  -4.3690  -2.9402
    -2.8960  -2.8555  -2.8009  -2.6780   5.1302   8.0497   8.6549   8.9552
     9.6054   9.8674  10.6650  11.0140  11.0947  12.1997  15.1819  16.0605
    16.2286  16.9739

          k = 0.0500 0.1500 0.4500 (  4506 PWs)   bands (ev):

   -43.8117 -20.2481 -20.2070 -20.1457  -5.2477  -4.4402  -4.3080  -2.9633
    -2.9073  -2.8548  -2.8144  -2.6731   4.9678   7.7109   8.6925   9.1433
     9.4122   9.6076  10.7321  10.9932  11.1228  12.5339  15.1655  16.3589
    16.4025  16.5202

          k = 0.0500 0.2500 0.2500 (  4520 PWs)   bands (ev):

   -43.8121 -20.2401 -20.1976 -20.1463  -5.3636  -4.4802  -4.3915  -2.9174
    -2.8852  -2.8709  -2.7219  -2.7171   5.1364   8.2145   8.6487   8.8852
     9.6859   9.7536  10.3330  10.9610  11.2780  11.9706  15.5233  15.7215
    16.1251  17.6613

          k = 0.0500 0.2500 0.3500 (  4508 PWs)   bands (ev):

   -43.8115 -20.2388 -20.2277 -20.1451  -5.2198  -4.4284  -4.2920  -2.9299
    -2.8952  -2.8732  -2.7328  -2.6898   4.8719   8.0151   8.5588   8.7953
     9.3834   9.7354  10.1829  10.8550  11.4239  12.0865  15.6922  16.0510
    16.4635  17.2929

          k = 0.0500 0.2500 0.4500 (  4499 PWs)   bands (ev):

   -43.8110 -20.2464 -20.2376 -20.1444  -5.1409  -4.3847  -4.2244  -2.9413
    -2.9059  -2.8744  -2.7187  -2.6878   4.7280   7.7235   8.5799   8.7199
     9.3538   9.6324  10.1655  10.8487  11.4568  12.1377  15.6839  16.3502
    16.7000  17.0688

          k = 0.0500 0.3500 0.3500 (  4507 PWs)   bands (ev):

   -43.8108 -20.2691 -20.2262 -20.1439  -5.1216  -4.3238  -4.2102  -2.9261
    -2.8988  -2.8820  -2.7493  -2.6234   4.6326   7.9044   8.1804   8.8082
     9.1784   9.6289  10.0349  10.7239  11.7041  11.8953  16.0184  16.2056
    16.7061  17.6295

          k = 0.0500 0.3500 0.4500 (  4503 PWs)   bands (ev):

   -43.8104 -20.2680 -20.2446 -20.1431  -5.0869  -4.2550  -4.1337  -2.9295
    -2.9048  -2.8868  -2.7566  -2.5797   4.5024   7.7208   8.0482   8.7831
     9.0646   9.7476   9.8975  10.6511  11.6393  11.9136  16.1902  16.3302
    16.9025  17.7145

          k = 0.0500 0.4500 0.4500 (  4506 PWs)   bands (ev):

   -43.8099 -20.2866 -20.2436 -20.1423  -5.0760  -4.1389  -4.0752  -2.9308
    -2.9037  -2.8934  -2.7789  -2.5141   4.3698   7.5800   7.8405   8.8198
     8.8997   9.7246   9.9217  10.5559  11.3515  12.1169  16.3120  16.5040
    17.0473  18.0999

          k = 0.1500 0.1500 0.1500 (  4506 PWs)   bands (ev):

   -43.8131 -20.2098 -20.1681 -20.1674  -5.6021  -4.5527  -4.5082  -2.8886
    -2.8845  -2.8574  -2.7159  -2.7132   5.6484   8.3144   8.3468   9.3800
     9.9616  10.0401  10.9106  11.0250  11.1617  11.4318  15.2585  15.3657
    15.3874  18.2681

          k = 0.1500 0.1500 0.2500 (  4515 PWs)   bands (ev):

   -43.8124 -20.2087 -20.1980 -20.1665  -5.4324  -4.5073  -4.4327  -2.9170
    -2.8842  -2.8546  -2.7380  -2.6908   5.3365   8.2469   8.3152   9.1003
     9.6894   9.8998  10.7898  11.0636  11.1556  11.6769  15.3342  15.6966
    15.7825  17.7441

          k = 0.1500 0.1500 0.3500 (  4502 PWs)   bands (ev):

   -43.8117 -20.2286 -20.2070 -20.1652  -5.2654  -4.4653  -4.3418  -2.9386
    -2.8744  -2.8488  -2.7700  -2.6773   5.0626   8.0296   8.2631   8.8014
     9.5077   9.9695  10.4623  11.1349  11.1879  12.0414  15.2649  16.1139
    16.2244  17.1524

          k = 0.1500 0.1500 0.4500 (  4508 PWs)   bands (ev):

   -43.8113 -20.2471 -20.2063 -20.1644  -5.1650  -4.4394  -4.2773  -2.9472
    -2.8669  -2.8403  -2.7948  -2.6749   4.9152   7.7184   8.1997   8.8386
     9.4388   9.9940  10.2805  11.1641  11.2026  12.2438  15.1943  16.3871
    16.5129  16.8727

          k = 0.1500 0.2500 0.2500 (  4503 PWs)   bands (ev):

   -43.8117 -20.2393 -20.1968 -20.1652  -5.2575  -4.4573  -4.3949  -2.9193
    -2.8949  -2.8414  -2.6979  -2.6943   5.1229   8.0847   8.1687   8.8887
     9.2898   9.7293  10.8164  10.9950  11.3152  11.7702  15.5781  15.7916
    16.0578  17.4868

          k = 0.1500 0.2500 0.3500 (  4503 PWs)   bands (ev):

   -43.8110 -20.2380 -20.2268 -20.1639  -5.1119  -4.4351  -4.2996  -2.9244
    -2.8827  -2.8269  -2.7036  -2.6700   4.9170   7.9340   8.0916   8.4720
     9.0335   9.7932  10.6685  10.9647  11.4544  11.8045  15.6068  16.0661
    16.3756  17.4410

          k = 0.1500 0.2500 0.4500 (  4499 PWs)   bands (ev):

   -43.8106 -20.2455 -20.2369 -20.1631  -5.0330  -4.4179  -4.2281  -2.9235
    -2.8718  -2.8207  -2.6941  -2.6714   4.7957   7.7201   7.9676   8.3634
     8.9917   9.8998  10.4363  11.0388  11.4909  11.7564  15.5833  16.3236
    16.6223  17.4985

          k = 0.1500 0.3500 0.3500 (  4508 PWs)   bands (ev):

   -43.8104 -20.2682 -20.2253 -20.1626  -5.0006  -4.3526  -4.2531  -2.9164
    -2.8715  -2.8059  -2.7065  -2.6057   4.7499   7.8019   7.9840   8.1934
     8.5554   9.7684  10.7201  10.8403  11.4484  11.7644  15.8872  16.1708
    16.5839  17.7817

          k = 0.1500 0.3500 0.4500 (  4514 PWs)   bands (ev):

   -43.8099 -20.2672 -20.2438 -20.1618  -4.9639  -4.3143  -4.1787  -2.9109
    -2.8499  -2.8042  -2.7150  -2.5624   4.6501   7.7002   7.9120   7.9920
     8.4016   9.8355  10.6296  10.8331  11.1666  11.8997  16.0574  16.2909
    16.7740  18.0587

          k = 0.1500 0.4500 0.4500 (  4512 PWs)   bands (ev):

   -43.8095 -20.2858 -20.2427 -20.1610  -4.9515  -4.2093  -4.1499  -2.9051
    -2.8178  -2.7870  -2.7514  -2.4951   4.5510   7.5504   7.8026   8.0132
     8.1002   9.8451  10.6196  10.7393  10.8351  12.1036  16.2695  16.4015
    16.9061  18.4137

          k = 0.2500 0.2500 0.2500 (  4485 PWs)   bands (ev):

   -43.8110 -20.2380 -20.1958 -20.1951  -5.0954  -4.4233  -4.3829  -2.9014
    -2.8998  -2.8059  -2.6690  -2.6619   5.0636   7.8138   7.8697   8.7819
     9.0671   9.1767  11.1270  11.2697  11.4321  11.4644  15.5705  16.0225
    16.0427  17.5018

          k = 0.2500 0.2500 0.3500 (  4503 PWs)   bands (ev):

   -43.8104 -20.2367 -20.2253 -20.1941  -4.9559  -4.4235  -4.3073  -2.8958
    -2.8745  -2.7613  -2.6500  -2.6401   4.9627   7.5924   7.7452   8.2689
     8.8408   9.1601  11.0149  11.2865  11.3992  11.5891  15.6159  16.1353
    16.3730  17.7462

          k = 0.2500 0.2500 0.4500 (  4503 PWs)   bands (ev):

   -43.8099 -20.2440 -20.2356 -20.1932  -4.8865  -4.4286  -4.2348  -2.8890
    -2.8583  -2.7128  -2.6486  -2.6378   4.8862   7.4508   7.7046   7.9062
     8.8082   9.2091  10.7605  11.3227  11.3507  11.6543  15.7056  16.2869
    16.6207  18.0469

          k = 0.2500 0.3500 0.3500 (  4511 PWs)   bands (ev):

   -43.8097 -20.2669 -20.2240 -20.1928  -4.8099  -4.3856  -4.3154  -2.8780
    -2.8465  -2.7081  -2.6246  -2.5712   4.9480   7.3677   7.4865   8.0806
     8.3496   9.0256  10.5797  11.3759  11.4756  11.7634  15.8280  16.2759
    16.5247  18.1315

          k = 0.2500 0.3500 0.4500 (  4513 PWs)   bands (ev):

   -43.8093 -20.2659 -20.2424 -20.1919  -4.7669  -4.3907  -4.2440  -2.8683
    -2.8215  -2.6665  -2.6221  -2.5282   4.9218   7.2746   7.4201   7.7615
     8.2036   9.0472  10.1779  11.4053  11.4605  11.8986  16.0676  16.3225
    16.7142  18.5242

          k = 0.2500 0.4500 0.4500 (  4521 PWs)   bands (ev):

   -43.8089 -20.2845 -20.2414 -20.1911  -4.7459  -4.3058  -4.2512  -2.8595
    -2.7897  -2.6355  -2.6125  -2.4583   4.9104   7.2044   7.3224   7.6264
     7.8889   9.0282   9.6843  11.4004  11.4989  12.0870  16.3151  16.4152
    16.8307  18.8947

          k = 0.3500 0.3500 0.3500 (  4518 PWs)   bands (ev):

   -43.8090 -20.2655 -20.2228 -20.2224  -4.6551  -4.3879  -4.3558  -2.8360
    -2.8299  -2.6157  -2.5407  -2.5285   5.1418   7.0424   7.0897   7.9918
     8.3209   8.3377   9.8327  11.6931  11.7488  11.8414  16.0238  16.5016
    16.5160  18.5607

          k = 0.3500 0.3500 0.4500 (  4511 PWs)   bands (ev):

   -43.8086 -20.2646 -20.2410 -20.2218  -4.6090  -4.4112  -4.3024  -2.8246
    -2.8066  -2.5464  -2.5171  -2.4819   5.2404   6.8602   6.9941   7.7217
     8.1376   8.3448   9.2804  11.7415  11.8440  11.9702  16.2825  16.4810
    16.7202  18.9912

          k = 0.3500 0.4500 0.4500 (  4526 PWs)   bands (ev):

   -43.8082 -20.2831 -20.2401 -20.2209  -4.5375  -4.3862  -4.3369  -2.8137
    -2.7837  -2.4938  -2.4672  -2.4118   5.4267   6.7367   6.8120   7.5735
     7.8817   8.2800   8.6126  11.8566  11.9434  12.0722  16.5119  16.5960
    16.7988  19.3939

          k = 0.4500 0.4500 0.4500 (  4548 PWs)   bands (ev):

   -43.8078 -20.2823 -20.2393 -20.2392  -4.4482  -4.3940  -4.3800  -2.7867
    -2.7796  -2.4078  -2.3822  -2.3771   5.9654   6.5104   6.5428   7.4916
     7.7236   7.8813   7.9129  12.0561  12.0653  12.1391  16.7158  16.7794
    16.7864  19.7975

          k =-0.0500 0.1500 0.0500 (  4525 PWs)   bands (ev):

   -43.8139 -20.2113 -20.1496 -20.1495  -5.8137  -4.6225  -4.5890  -2.8617
    -2.8580  -2.8537  -2.7422  -2.6910   6.1684   8.4055   8.4101   8.9884
    10.4120  10.4490  10.8357  11.0861  11.4200  11.4534  14.5895  15.1872
    15.1972  17.3589

          k =-0.0500 0.2500 0.0500 (  4518 PWs)   bands (ev):

   -43.8132 -20.2425 -20.1483 -20.1483  -5.6206  -4.5412  -4.5234  -2.8906
    -2.8754  -2.8523  -2.8114  -2.6743   5.6488   8.4520   8.5000   8.8336
    10.1203  10.1457  10.7859  11.1597  11.4547  11.6316  14.5901  15.7054
    15.7225  17.3601

          k =-0.0500 0.3500 0.0500 (  4521 PWs)   bands (ev):

   -43.8125 -20.2733 -20.1471 -20.1471  -5.4194  -4.4584  -4.4513  -2.9369
    -2.8913  -2.8697  -2.8508  -2.6597   5.2746   8.0502   8.5909   8.7698
     9.8668   9.8742  10.7228  11.3259  11.5034  12.2072  14.5896  16.1981
    16.2164  16.8488

          k =-0.0500 0.4500 0.0500 (  4510 PWs)   bands (ev):

   -43.8121 -20.2922 -20.1464 -20.1463  -5.2902  -4.4067  -4.4025  -2.9818
    -2.9004  -2.8935  -2.8498  -2.6518   5.0938   7.6396   8.6478   8.8626
     9.6840   9.7367  10.6821  11.3938  11.5388  12.8078  14.5859  15.9944
    16.4959  16.5165

          k = 0.1500 0.0500 0.1500 (  4521 PWs)   bands (ev):

   -43.8135 -20.1905 -20.1688 -20.1682  -5.7155  -4.5964  -4.5313  -2.8861
    -2.8603  -2.8559  -2.7359  -2.7051   5.8630   8.3539   8.5027   9.2159
    10.1802  10.2246  10.8776  11.0858  11.1140  11.5378  15.0586  15.1091
    15.2852  17.7427

          k =-0.0500 0.2500 0.1500 (  4518 PWs)   bands (ev):

   -43.8128 -20.2416 -20.1672 -20.1476  -5.5203  -4.5161  -4.4806  -2.9085
    -2.8751  -2.8642  -2.7658  -2.6932   5.4403   8.3035   8.5477   9.0320
     9.8177  10.0858  10.6673  11.0232  11.2301  11.8035  14.9764  15.7139
    15.8364  17.7311

          k = 0.2500 0.0500 0.1500 (  4518 PWs)   bands (ev):

   -43.8128 -20.1995 -20.1889 -20.1672  -5.5438  -4.5374  -4.4494  -2.9105
    -2.8756  -2.8564  -2.7707  -2.6929   5.4575   8.3339   8.5948   9.0530
     9.8364  10.0676  10.6762  11.0490  11.2237  11.7343  15.0785  15.5646
    15.7569  17.8086

          k =-0.0500 0.3500 0.1500 (  4513 PWs)   bands (ev):

   -43.8121 -20.2723 -20.1660 -20.1463  -5.3309  -4.4454  -4.4054  -2.9421
    -2.8875  -2.8640  -2.8009  -2.6790   5.1107   7.9975   8.5353   8.8982
     9.5833   9.8674  10.7299  11.0105  11.2701  12.2532  14.9673  16.2057
    16.2802  17.0398

          k = 0.3500 0.0500 0.1500 (  4513 PWs)   bands (ev):

   -43.8121 -20.2296 -20.1879 -20.1660  -5.3719  -4.4707  -4.3625  -2.9396
    -2.8882  -2.8555  -2.8102  -2.6789   5.1363   8.0581   8.6243   8.9771
     9.5555   9.9264  10.5472  11.0288  11.2910  12.1818  15.0692  16.0682
    16.2165  16.9986

          k =-0.0500 0.4500 0.1500 (  4506 PWs)   bands (ev):

   -43.8117 -20.2912 -20.1651 -20.1456  -5.2137  -4.3958  -4.3570  -2.9679
    -2.8976  -2.8634  -2.8144  -2.6739   4.9421   7.6325   8.5190   9.0032
     9.4296   9.7187  10.8159  10.9829  11.3021  12.6015  14.9504  16.4019
    16.5051  16.6156

          k = 0.4500 0.0500 0.1500 (  4506 PWs)   bands (ev):

   -43.8117 -20.2481 -20.1872 -20.1652  -5.2668  -4.4230  -4.3068  -2.9625
    -2.8978  -2.8548  -2.8271  -2.6736   4.9726   7.7133   8.6618   9.1340
     9.4000   9.6851  10.5749  11.0021  11.3279  12.5436  15.0502  16.3772
    16.4181  16.5016

          k = 0.2500 0.0500 0.2500 (  4520 PWs)   bands (ev):

   -43.8121 -20.1989 -20.1972 -20.1874  -5.3948  -4.4835  -4.3671  -2.9162
    -2.8796  -2.8689  -2.7278  -2.7218   5.1532   8.2516   8.6494   8.9305
     9.6295   9.6475  10.4812  11.0098  11.3490  11.8892  15.4937  15.6178
    16.0960  17.7030

          k =-0.0500 0.3500 0.2500 (  4508 PWs)   bands (ev):

   -43.8115 -20.2707 -20.1962 -20.1451  -5.2086  -4.4052  -4.3149  -2.9310
    -2.8895  -2.8792  -2.7327  -2.6902   4.8611   7.9480   8.5414   8.7519
     9.4342   9.6943  10.2120  10.9409  11.3946  12.1375  15.5154  16.2061
    16.4650  17.3553

          k = 0.3500 0.0500 0.2500 (  4508 PWs)   bands (ev):

   -43.8115 -20.2280 -20.1966 -20.1863  -5.2614  -4.4062  -4.2788  -2.9265
    -2.8872  -2.8727  -2.7390  -2.7002   4.8855   8.0407   8.5285   8.8082
     9.3751   9.6807  10.2386  10.9676  11.4672  12.0655  15.5341  16.0691
    16.4418  17.3215

          k =-0.0500 0.4500 0.2500 (  4499 PWs)   bands (ev):

   -43.8110 -20.2895 -20.1953 -20.1443  -5.1248  -4.3350  -4.2706  -2.9450
    -2.8965  -2.8829  -2.7191  -2.6877   4.7100   7.6238   8.4836   8.7368
     9.3854   9.6194  10.2136  10.9579  11.4046  12.2242  15.5024  16.5061
    16.6627  17.1923

          k = 0.4500 0.0500 0.2500 (  4499 PWs)   bands (ev):

   -43.8110 -20.2464 -20.1957 -20.1856  -5.1899  -4.3416  -4.2219  -2.9386
    -2.8962  -2.8745  -2.7241  -2.7017   4.7385   7.7314   8.5631   8.6879
     9.4210   9.6405  10.0937  10.9917  11.4650  12.1782  15.5252  16.3895
    16.6697  17.0867

          k = 0.3500 0.0500 0.3500 (  4507 PWs)   bands (ev):

   -43.8108 -20.2268 -20.2259 -20.1853  -5.1852  -4.2943  -4.1879  -2.9202
    -2.8931  -2.8783  -2.7523  -2.6429   4.6519   8.0413   8.1069   8.8139
     9.0937   9.6448  10.1320  10.7396  11.8192  11.8264  15.9975  16.1113
    16.6816  17.6163

          k =-0.0500 0.4500 0.3500 (  4503 PWs)   bands (ev):

   -43.8104 -20.2877 -20.2252 -20.1431  -5.0829  -4.2172  -4.1673  -2.9314
    -2.8988  -2.8923  -2.7567  -2.5795   4.4946   7.6156   8.1257   8.7122
     9.1651   9.6097   9.9964  10.6867  11.5814  11.9840  16.0151  16.5049
    16.8790  17.8266

          k = 0.4500 0.0500 0.3500 (  4503 PWs)   bands (ev):

   -43.8104 -20.2447 -20.2254 -20.1846  -5.1552  -4.1991  -4.1291  -2.9240
    -2.8955  -2.8862  -2.7599  -2.6016   4.5169   7.7457   8.0992   8.6983
     9.0577   9.7599   9.9791  10.6745  11.6237  12.0087  16.0477  16.3900
    16.8558  17.7296

          k = 0.4500 0.0500 0.4500 (  4506 PWs)   bands (ev):

   -43.8099 -20.2438 -20.2436 -20.1838  -5.1500  -4.0845  -4.0671  -2.9237
    -2.8951  -2.8914  -2.7838  -2.5384   4.3860   7.6717   7.8657   8.7682
     8.7971   9.8773   9.9546  10.4963  11.3858  12.1869  16.3792  16.3988
    16.9781  18.0943

          k =-0.1500 0.2500 0.1500 (  4515 PWs)   bands (ev):

   -43.8124 -20.2407 -20.1667 -20.1662  -5.4175  -4.4766  -4.4697  -2.9167
    -2.8866  -2.8549  -2.7345  -2.6924   5.3256   8.2329   8.2752   9.0882
     9.7243   9.8818  10.6690  11.1033  11.2343  11.7082  15.2306  15.7949
    15.8332  17.7616

          k =-0.1500 0.3500 0.1500 (  4502 PWs)   bands (ev):

   -43.8117 -20.2714 -20.1654 -20.1650  -5.2340  -4.4297  -4.3903  -2.9413
    -2.8792  -2.8457  -2.7649  -2.6788   5.0417   7.9998   8.1325   8.8146
     9.5872   9.8857  10.4485  11.1304  11.2874  12.0956  15.1566  16.2408
    16.2435  17.1935

          k =-0.1500 0.4500 0.1500 (  4508 PWs)   bands (ev):

   -43.8113 -20.2902 -20.1645 -20.1642  -5.1231  -4.4043  -4.3292  -2.9523
    -2.8743  -2.8331  -2.7888  -2.6766   4.8882   7.6410   8.0633   8.8606
     9.5326   9.8447  10.3710  11.1323  11.3182  12.3070  15.0840  16.4940
    16.5258  16.9467

          k = 0.2500 0.1500 0.2500 (  4503 PWs)   bands (ev):

   -43.8117 -20.2076 -20.1969 -20.1964  -5.2782  -4.4650  -4.3729  -2.9173
    -2.8931  -2.8407  -2.7039  -2.6939   5.1341   8.0971   8.1874   8.9000
     9.2750   9.7013  10.9296  10.9626  11.3725  11.6812  15.5833  15.7482
    16.0299  17.4886

          k =-0.1500 0.3500 0.2500 (  4503 PWs)   bands (ev):

   -43.8110 -20.2698 -20.1954 -20.1639  -5.0975  -4.4044  -4.3349  -2.9261
    -2.8862  -2.8218  -2.7018  -2.6719   4.9054   7.8719   8.0474   8.4658
     9.1478   9.7495  10.5520  11.0974  11.4329  11.8512  15.5065  16.1723
    16.3750  17.4678

          k = 0.3500 0.1500 0.2500 (  4503 PWs)   bands (ev):

   -43.8110 -20.2271 -20.2059 -20.1952  -5.1410  -4.4179  -4.2920  -2.9215
    -2.8823  -2.8216  -2.7071  -2.6778   4.9266   7.9330   8.1051   8.4460
     9.0935   9.7422  10.6535  11.0510  11.4792  11.7829  15.5420  16.0808
    16.3555  17.4454

          k =-0.1500 0.4500 0.2500 (  4499 PWs)   bands (ev):

   -43.8106 -20.2885 -20.1945 -20.1631  -5.0119  -4.3717  -4.2790  -2.9273
    -2.8783  -2.8086  -2.6959  -2.6718   4.7764   7.6217   7.8667   8.4220
     9.1345   9.8194  10.3567  11.1566  11.4434  11.8463  15.4726  16.4423
    16.6128  17.5703

          k = 0.4500 0.1500 0.2500 (  4499 PWs)   bands (ev):

   -43.8106 -20.2455 -20.2052 -20.1944  -5.0686  -4.3863  -4.2269  -2.9209
    -2.8728  -2.8090  -2.7013  -2.6812   4.8033   7.7252   7.9460   8.3574
     9.0721   9.8350  10.4256  11.1084  11.4605  11.8168  15.5112  16.3483
    16.6023  17.5048

          k = 0.3500 0.1500 0.3500 (  4508 PWs)   bands (ev):

   -43.8104 -20.2260 -20.2251 -20.2043  -5.0568  -4.3273  -4.2322  -2.9105
    -2.8702  -2.8008  -2.7049  -2.6247   4.7679   7.8777   7.9564   8.1876
     8.5680   9.7355  10.8048  10.8206  11.4116  11.8212  15.8685  16.1245
    16.5648  17.7732

          k =-0.1500 0.4500 0.3500 (  4514 PWs)   bands (ev):

   -43.8099 -20.2869 -20.2244 -20.1618  -4.9589  -4.2692  -4.2222  -2.9124
    -2.8556  -2.7930  -2.7194  -2.5620   4.6414   7.5798   7.9141   8.0195
     8.4973   9.8005  10.5426  10.9372  11.1664  11.9145  15.9484  16.4097
    16.7630  18.1072

          k = 0.4500 0.1500 0.3500 (  4514 PWs)   bands (ev):

   -43.8099 -20.2439 -20.2246 -20.2036  -5.0259  -4.2625  -4.1762  -2.9052
    -2.8517  -2.7919  -2.7157  -2.5843   4.6640   7.7267   7.9146   7.9645
     8.4621   9.7875  10.6190  10.9016  11.1421  11.9770  15.9735  16.3213
    16.7499  18.0646

          k = 0.4500 0.1500 0.4500 (  4512 PWs)   bands (ev):

   -43.8095 -20.2429 -20.2428 -20.2029  -5.0210  -4.1584  -4.1428  -2.8982
    -2.8161  -2.7799  -2.7504  -2.5197   4.5681   7.6583   7.8166   7.9789
     8.0705   9.8166  10.6662  10.7520  10.8153  12.1776  16.2921  16.3359
    16.8820  18.4066

          k =-0.2500 0.3500 0.2500 (  4503 PWs)   bands (ev):

   -43.8104 -20.2683 -20.1944 -20.1938  -4.9324  -4.3935  -4.3533  -2.8993
    -2.8757  -2.7594  -2.6463  -2.6396   4.9497   7.5331   7.7784   8.2049
     8.9870   9.0860  10.9071  11.3877  11.4367  11.5505  15.5838  16.1960
    16.3706  17.7550

          k =-0.2500 0.4500 0.2500 (  4503 PWs)   bands (ev):

   -43.8099 -20.2870 -20.1934 -20.1930  -4.8502  -4.4003  -4.2867  -2.8940
    -2.8611  -2.7065  -2.6529  -2.6295   4.8645   7.3693   7.6436   7.9540
     8.9621   9.1177  10.6797  11.3668  11.4213  11.6163  15.6542  16.3724
    16.6212  18.0852

          k = 0.3500 0.2500 0.3500 (  4511 PWs)   bands (ev):

   -43.8097 -20.2354 -20.2240 -20.2238  -4.8480  -4.3714  -4.2972  -2.8725
    -2.8492  -2.7035  -2.6180  -2.5876   4.9610   7.3983   7.4545   8.1269
     8.3644   8.9754  10.5960  11.4028  11.4041  11.8263  15.8222  16.2512
    16.5209  18.1293

          k =-0.2500 0.4500 0.3500 (  4513 PWs)   bands (ev):

   -43.8093 -20.2855 -20.2231 -20.1919  -4.7577  -4.3467  -4.2920  -2.8699
    -2.8235  -2.6591  -2.6260  -2.5270   4.9110   7.1863   7.5101   7.6863
     8.2941   9.0161  10.1768  11.3705  11.5049  11.8941  16.0149  16.3919
    16.7102  18.5306

          k = 0.4500 0.2500 0.3500 (  4513 PWs)   bands (ev):

   -43.8093 -20.2424 -20.2344 -20.2230  -4.8135  -4.3501  -4.2429  -2.8632
    -2.8256  -2.6539  -2.6183  -2.5484   4.9329   7.2475   7.4464   7.7598
     8.2786   8.9771  10.1898  11.4017  11.4356  11.9655  16.0368  16.3278
    16.7079  18.5242

          k = 0.4500 0.2500 0.4500 (  4521 PWs)   bands (ev):

   -43.8089 -20.2416 -20.2414 -20.2334  -4.8073  -4.2592  -4.2453  -2.8531
    -2.7945  -2.6206  -2.6082  -2.4832   4.9291   7.2530   7.2801   7.6625
     7.9134   8.9609   9.7056  11.4382  11.4391  12.1629  16.3159  16.3813
    16.8251  18.8936

          k =-0.3500 0.4500 0.3500 (  4511 PWs)   bands (ev):

   -43.8086 -20.2840 -20.2219 -20.2216  -4.5787  -4.3895  -4.3501  -2.8294
    -2.8032  -2.5568  -2.5123  -2.4735   5.2251   6.8132   7.0598   7.6463
     8.2241   8.3113   9.2834  11.7964  11.8221  11.9222  16.2632  16.5207
    16.7165  18.9817

          k = 0.4500 0.3500 0.4500 (  4526 PWs)   bands (ev):

   -43.8082 -20.2637 -20.2401 -20.2401  -4.5877  -4.3449  -4.3319  -2.8077
    -2.7891  -2.4764  -2.4633  -2.4352   5.4455   6.7524   6.7780   7.6141
     7.9109   8.2139   8.6226  11.8698  11.8742  12.1483  16.5126  16.5817
    16.7981  19.3989

     the Fermi energy is    12.7230 ev

!    total energy              =    -364.91753952 Ry
     Harris-Foulkes estimate   =    -364.91753952 Ry
     estimated scf accuracy    <          2.9E-09 Ry

     The total energy is the sum of the following terms:

     one-electron contribution =     -67.00390277 Ry
     hartree contribution      =      66.23354447 Ry
     xc contribution           =     -86.22428434 Ry
     ewald contribution        =    -277.92572726 Ry
     smearing contrib. (-TS)   =       0.00283037 Ry

     convergence has been achieved in   8 iterations

     Forces acting on atoms (cartesian axes, Ry/au):

     atom    1 type  1   force =     0.00000000    0.01897736    0.00000000
     atom    2 type  2   force =     0.00000000   -0.03010687    0.00000000
     atom    3 type  3   force =     0.00000000    0.00251319    0.00000000
     atom    4 type  3   force =     0.00000000    0.00610313    0.00000000
     atom    5 type  3   force =     0.00000000    0.00251319    0.00000000

     Total force =     0.030924     Total SCF correction =     0.000119


     Computing stress (Cartesian axis) and pressure

          total   stress  (Ry/bohr**3)                   (kbar)     P=  267.94
   0.00178201   0.00000000   0.00000000        262.14      0.00      0.00
   0.00000000   0.00190031   0.00000000          0.00    279.55      0.00
   0.00000000   0.00000000   0.00178201          0.00      0.00    262.14


     number of scf cycles    =   2
     number of bfgs steps    =   1

     energy   old            =    -364.9091124360 Ry
     energy   new            =    -364.9175395155 Ry

     CASE: energy  _new < energy  _old

     new trust radius        =       0.0411044623 bohr
     new conv_thr            =       0.0000000030 Ry


ATOMIC_POSITIONS (crystal)
Pb       0.000000000   0.000000000   0.000000000    0   0   0
Ti       0.500000000   0.529513174   0.500000000
O        0.500000000   0.499633899   0.000000000
O        0.500000000   0.012337488   0.500000000
O        0.000000000   0.499633899   0.500000000



     Writing output data file PbTiO3.save/
     NEW-OLD atomic charge density approx. for the potential

     Check: negative core charge=   -0.000005

     total cpu time spent up to now is      778.0 secs

     Self-consistent Calculation

     iteration #  1     ecut=    80.00 Ry     beta= 0.70
     Davidson diagonalization with overlap
     ethr =  1.00E-06,  avg # of iterations =  4.8

     total cpu time spent up to now is      837.4 secs

     total energy              =    -364.91841141 Ry
     Harris-Foulkes estimate   =    -364.91870556 Ry
     estimated scf accuracy    <       0.00044634 Ry

     iteration #  2     ecut=    80.00 Ry     beta= 0.70
     Davidson diagonalization with overlap
     ethr =  1.01E-06,  avg # of iterations =  3.4

     total cpu time spent up to now is      871.3 secs

     total energy              =    -364.91841921 Ry
     Harris-Foulkes estimate   =    -364.91863688 Ry
     estimated scf accuracy    <       0.00041031 Ry

     iteration #  3     ecut=    80.00 Ry     beta= 0.70
     Davidson diagonalization with overlap
     ethr =  9.33E-07,  avg # of iterations =  3.2

     total cpu time spent up to now is      903.3 secs

     total energy              =    -364.91852030 Ry
     Harris-Foulkes estimate   =    -364.91857819 Ry
     estimated scf accuracy    <       0.00015337 Ry

     iteration #  4     ecut=    80.00 Ry     beta= 0.70
     Davidson diagonalization with overlap
     ethr =  3.49E-07,  avg # of iterations =  3.0

     total cpu time spent up to now is      931.6 secs

     total energy              =    -364.91854705 Ry
     Harris-Foulkes estimate   =    -364.91854773 Ry
     estimated scf accuracy    <       0.00000160 Ry

     iteration #  5     ecut=    80.00 Ry     beta= 0.70
     Davidson diagonalization with overlap
     ethr =  3.63E-09,  avg # of iterations =  4.0

     total cpu time spent up to now is      972.5 secs

     total energy              =    -364.91854821 Ry
     Harris-Foulkes estimate   =    -364.91854828 Ry
     estimated scf accuracy    <       0.00000018 Ry

     iteration #  6     ecut=    80.00 Ry     beta= 0.70
     Davidson diagonalization with overlap
     ethr =  4.15E-10,  avg # of iterations =  3.0

     total cpu time spent up to now is     1005.1 secs

     total energy              =    -364.91854823 Ry
     Harris-Foulkes estimate   =    -364.91854827 Ry
     estimated scf accuracy    <       0.00000008 Ry

     iteration #  7     ecut=    80.00 Ry     beta= 0.70
     Davidson diagonalization with overlap
     ethr =  1.73E-10,  avg # of iterations =  3.0

     total cpu time spent up to now is     1037.7 secs

     total energy              =    -364.91854825 Ry
     Harris-Foulkes estimate   =    -364.91854826 Ry
     estimated scf accuracy    <       0.00000002 Ry

     iteration #  8     ecut=    80.00 Ry     beta= 0.70
     Davidson diagonalization with overlap
     ethr =  5.24E-11,  avg # of iterations =  2.5

     total cpu time spent up to now is     1067.6 secs

     End of self-consistent calculation

          k = 0.0500 0.0500 0.0500 (  4505 PWs)   bands (ev):

   -43.8427 -20.1999 -20.1797 -20.1796  -5.9298  -4.6659  -4.6412  -2.8484
    -2.8434  -2.8428  -2.6989  -2.6971   6.6509   8.3584   8.3665   8.6592
    10.6961  10.7085  10.8458  11.3402  11.4320  11.5443  14.5677  14.7299
    14.7322  17.3210

          k = 0.0500 0.0500 0.1500 (  4525 PWs)   bands (ev):

   -43.8423 -20.2001 -20.1978 -20.1789  -5.8201  -4.6262  -4.5919  -2.8626
    -2.8563  -2.8421  -2.7401  -2.6862   6.1809   8.4099   8.4367   8.9862
    10.4710  10.5212  10.8473  11.1632  11.2832  11.5157  14.7311  14.9617
    15.0240  17.3612

          k = 0.0500 0.0500 0.2500 (  4518 PWs)   bands (ev):

   -43.8416 -20.2296 -20.1978 -20.1777  -5.6382  -4.5607  -4.5072  -2.8896
    -2.8750  -2.8405  -2.8082  -2.6697   5.6708   8.4576   8.5662   8.8756
    10.1839  10.2408  10.7963  11.1226  11.3296  11.6169  14.7320  15.5233
    15.5475  17.3591

          k = 0.0500 0.0500 0.3500 (  4521 PWs)   bands (ev):

   -43.8409 -20.2600 -20.1967 -20.1765  -5.4500  -4.4901  -4.4189  -2.9318
    -2.8919  -2.8673  -2.8390  -2.6552   5.3068   8.0706   8.7150   8.8850
     9.8586   9.9189  10.7295  11.1810  11.4281  12.1707  14.7313  16.0439
    16.0688  16.8137

          k = 0.0500 0.0500 0.4500 (  4510 PWs)   bands (ev):

   -43.8405 -20.2786 -20.1960 -20.1758  -5.3301  -4.4426  -4.3630  -2.9734
    -2.9022  -2.8914  -2.8380  -2.6473   5.1327   7.6792   8.8312   9.0682
     9.6002   9.6790  10.6860  11.2239  11.4717  12.7653  14.7272  15.9618
    16.3609  16.3893

          k = 0.0500 0.1500 0.1500 (  4521 PWs)   bands (ev):

   -43.8418 -20.2185 -20.1979 -20.1781  -5.7083  -4.5820  -4.5559  -2.8769
    -2.8609  -2.8536  -2.7305  -2.7026   5.8634   8.3564   8.4797   9.2188
    10.1555  10.3596  10.8360  11.0117  11.2401  11.5090  14.9571  15.1019
    15.3203  17.6288

          k = 0.0500 0.1500 0.2500 (  4518 PWs)   bands (ev):

   -43.8412 -20.2288 -20.2169 -20.1769  -5.5325  -4.5308  -4.4690  -2.9048
    -2.8761  -2.8532  -2.7633  -2.6889   5.4578   8.3268   8.5903   9.0451
     9.8843  10.1178  10.6593  11.0540  11.1347  11.7779  15.0928  15.5318
    15.7497  17.6952

          k = 0.0500 0.1500 0.3500 (  4513 PWs)   bands (ev):

   -43.8405 -20.2590 -20.2158 -20.1758  -5.3554  -4.4746  -4.3758  -2.9362
    -2.8896  -2.8524  -2.7983  -2.6747   5.1383   8.0390   8.6457   8.9524
     9.5961   9.8720  10.6803  11.0360  11.1512  12.2081  15.0861  16.0510
    16.2060  16.9917

          k = 0.0500 0.1500 0.4500 (  4506 PWs)   bands (ev):

   -43.8401 -20.2775 -20.2150 -20.1750  -5.2463  -4.4358  -4.3146  -2.9596
    -2.9005  -2.8518  -2.8122  -2.6695   4.9766   7.6873   8.6786   9.1384
     9.3992   9.6195  10.7546  11.0114  11.1790  12.5468  15.0701  16.3568
    16.4149  16.4986

          k = 0.0500 0.2500 0.2500 (  4520 PWs)   bands (ev):

   -43.8405 -20.2480 -20.2270 -20.1757  -5.3678  -4.4797  -4.3934  -2.9130
    -2.8796  -2.8672  -2.7190  -2.7144   5.1463   8.2241   8.6622   8.8814
     9.6848   9.7558  10.3452  10.9729  11.3042  11.9610  15.5055  15.6497
    16.0984  17.6635

          k = 0.0500 0.2500 0.3500 (  4508 PWs)   bands (ev):

   -43.8398 -20.2575 -20.2463 -20.1745  -5.2244  -4.4217  -4.2964  -2.9254
    -2.8890  -2.8700  -2.7298  -2.6879   4.8803   8.0102   8.5577   8.7892
     9.3938   9.7296  10.1870  10.8827  11.4442  12.0891  15.6164  16.0437
    16.4467  17.3035

          k = 0.0500 0.2500 0.4500 (  4499 PWs)   bands (ev):

   -43.8394 -20.2758 -20.2455 -20.1737  -5.1465  -4.3726  -4.2308  -2.9373
    -2.8992  -2.8714  -2.7155  -2.6863   4.7358   7.7022   8.5795   8.7097
     9.3796   9.6211  10.1637  10.8824  11.4681  12.1533  15.6073  16.3491
    16.6849  17.0838

          k = 0.0500 0.3500 0.3500 (  4507 PWs)   bands (ev):

   -43.8391 -20.2769 -20.2556 -20.1732  -5.1318  -4.3152  -4.2106  -2.9211
    -2.8932  -2.8780  -2.7458  -2.6226   4.6416   7.9327   8.1481   8.8175
     9.1749   9.6322  10.0401  10.7215  11.7453  11.8743  16.0118  16.1455
    16.6984  17.6247

          k = 0.0500 0.3500 0.4500 (  4503 PWs)   bands (ev):

   -43.8387 -20.2759 -20.2740 -20.1725  -5.0978  -4.2371  -4.1399  -2.9249
    -2.8981  -2.8838  -2.7531  -2.5793   4.5093   7.7101   8.0479   8.7709
     9.0848   9.7386   9.9060  10.6542  11.6384  11.9393  16.1270  16.3343
    16.8962  17.7258

          k = 0.0500 0.4500 0.4500 (  4506 PWs)   bands (ev):

   -43.8383 -20.2943 -20.2730 -20.1717  -5.0889  -4.1188  -4.0815  -2.9257
    -2.8970  -2.8904  -2.7755  -2.5143   4.3762   7.6005   7.8127   8.8285
     8.8875   9.7560   9.9084  10.5403  11.3588  12.1341  16.3211  16.4465
    17.0491  18.0924

          k = 0.1500 0.1500 0.1500 (  4506 PWs)   bands (ev):

   -43.8414 -20.2177 -20.1974 -20.1968  -5.6019  -4.5461  -4.5216  -2.8834
    -2.8810  -2.8534  -2.7120  -2.7105   5.6555   8.3239   8.3429   9.3925
     9.9912  10.0376  10.9760  11.0418  11.1405  11.4165  15.2422  15.3095
    15.3278  18.2341

          k = 0.1500 0.1500 0.2500 (  4515 PWs)   bands (ev):

   -43.8408 -20.2279 -20.2162 -20.1958  -5.4300  -4.5036  -4.4432  -2.9128
    -2.8802  -2.8506  -2.7341  -2.6876   5.3427   8.2511   8.3144   9.1078
     9.7026   9.8960  10.7845  11.0953  11.1738  11.6710  15.2785  15.6828
    15.7519  17.7503

          k = 0.1500 0.1500 0.3500 (  4502 PWs)   bands (ev):

   -43.8401 -20.2580 -20.2150 -20.1946  -5.2608  -4.4636  -4.3499  -2.9348
    -2.8707  -2.8444  -2.7658  -2.6739   5.0687   8.0224   8.2549   8.8055
     9.5164   9.9654  10.4602  11.1567  11.2105  12.0457  15.2082  16.1104
    16.1996  17.1601

          k = 0.1500 0.1500 0.4500 (  4508 PWs)   bands (ev):

   -43.8397 -20.2765 -20.2143 -20.1938  -5.1592  -4.4385  -4.2842  -2.9437
    -2.8637  -2.8351  -2.7906  -2.6714   4.9219   7.6951   8.1918   8.8483
     9.4429   9.9779  10.2971  11.1791  11.2274  12.2522  15.1365  16.3873
    16.4882  16.8854

          k = 0.1500 0.2500 0.2500 (  4503 PWs)   bands (ev):

   -43.8401 -20.2472 -20.2262 -20.1946  -5.2596  -4.4560  -4.3983  -2.9149
    -2.8903  -2.8373  -2.6946  -2.6913   5.1319   8.0976   8.1762   8.8949
     9.2829   9.7141  10.8613  10.9797  11.3387  11.7518  15.5670  15.7456
    16.0281  17.4837

          k = 0.1500 0.2500 0.3500 (  4503 PWs)   bands (ev):

   -43.8394 -20.2566 -20.2455 -20.1933  -5.1134  -4.4289  -4.3056  -2.9201
    -2.8789  -2.8215  -2.7000  -2.6680   4.9246   7.9333   8.0947   8.4618
     9.0474   9.7743  10.6506  11.0050  11.4745  11.8014  15.5624  16.0595
    16.3520  17.4404

          k = 0.1500 0.2500 0.4500 (  4499 PWs)   bands (ev):

   -43.8390 -20.2749 -20.2448 -20.1925  -5.0349  -4.4086  -4.2347  -2.9195
    -2.8686  -2.8135  -2.6911  -2.6696   4.8026   7.7006   7.9566   8.3741
     9.0104   9.8794  10.4183  11.0745  11.4980  11.7739  15.5306  16.3266
    16.5996  17.5101

          k = 0.1500 0.3500 0.3500 (  4508 PWs)   bands (ev):

   -43.8387 -20.2760 -20.2548 -20.1920  -5.0089  -4.3445  -4.2537  -2.9114
    -2.8669  -2.8012  -2.7025  -2.6049   4.7588   7.8303   7.9843   8.1717
[...]

   -43.8660 -20.2547 -20.2530 -20.2527  -5.0887  -4.4091  -4.4089  -2.8936
    -2.8936  -2.7988  -2.6597  -2.6591   5.0799   7.8668   7.8690   8.9193
     9.0012   9.0125  11.2389  11.2444  11.3979  11.4584  15.5916  15.9769
    15.9785  17.4875

          k = 0.2500 0.2500 0.3500 (  4503 PWs)   bands (ev):

   -43.8653 -20.2834 -20.2530 -20.2516  -4.9413  -4.4192  -4.3234  -2.8900
    -2.8680  -2.7533  -2.6392  -2.6368   4.9740   7.5985   7.7749   8.2308
     8.8889   9.0333  10.9781  11.3539  11.4084  11.5956  15.5973  16.1265
    16.3309  17.7429

          k = 0.2500 0.2500 0.4500 (  4503 PWs)   bands (ev):

   -43.8649 -20.3019 -20.2521 -20.2508  -4.8689  -4.4259  -4.2470  -2.8837
    -2.8523  -2.7029  -2.6421  -2.6299   4.8948   7.4367   7.6595   7.9320
     8.8576   9.0893  10.7207  11.3638  11.3904  11.6624  15.6474  16.3144
    16.5852  18.0761

          k = 0.2500 0.3500 0.3500 (  4511 PWs)   bands (ev):

   -43.8646 -20.2831 -20.2818 -20.2504  -4.8162  -4.3760  -4.3143  -2.8694
    -2.8406  -2.6988  -2.6155  -2.5701   4.9656   7.4045   7.4890   8.1082
     8.2667   8.9385  10.5760  11.4188  11.4555  11.8067  15.8257  16.2244
    16.4958  18.1312

          k = 0.2500 0.3500 0.4500 (  4513 PWs)   bands (ev):

   -43.8642 -20.3004 -20.2820 -20.2496  -4.7754  -4.3612  -4.2549  -2.8604
    -2.8167  -2.6511  -2.6154  -2.5278   4.9331   7.2486   7.4779   7.7036
     8.2056   8.9458  10.1729  11.4279  11.4703  11.9405  16.0144  16.3245
    16.6896  18.5410

          k = 0.2500 0.4500 0.4500 (  4521 PWs)   bands (ev):

   -43.8638 -20.3005 -20.2994 -20.2488  -4.7651  -4.2703  -4.2567  -2.8507
    -2.7848  -2.6187  -2.6060  -2.4599   4.9227   7.2671   7.2980   7.6209
     7.8080   8.9403   9.6874  11.4620  11.4669  12.1311  16.3003  16.3606
    16.8224  18.9182

          k = 0.3500 0.3500 0.3500 (  4518 PWs)   bands (ev):

   -43.8640 -20.2818 -20.2805 -20.2803  -4.6433  -4.3722  -4.3719  -2.8263
    -2.8262  -2.6065  -2.5278  -2.5273   5.1542   7.0765   7.0773   8.0609
     8.2154   8.2173   9.8247  11.7461  11.7471  11.8539  16.0195  16.4730
    16.4739  18.5729

          k = 0.3500 0.3500 0.4500 (  4511 PWs)   bands (ev):

   -43.8635 -20.2990 -20.2808 -20.2796  -4.5881  -4.4052  -4.3132  -2.8192
    -2.7992  -2.5382  -2.5081  -2.4733   5.2457   6.8454   7.0265   7.6814
     8.1455   8.2093   9.2753  11.7902  11.8532  11.9695  16.2566  16.4688
    16.6884  19.0130

          k = 0.3500 0.4500 0.4500 (  4526 PWs)   bands (ev):

   -43.8631 -20.2992 -20.2981 -20.2788  -4.5474  -4.3540  -4.3424  -2.8049
    -2.7791  -2.4733  -2.4615  -2.4116   5.4396   6.7553   6.7904   7.5881
     7.8038   8.1785   8.6127  11.9098  11.9124  12.1167  16.4931  16.5582
    16.7754  19.4331

          k = 0.4500 0.4500 0.4500 (  4548 PWs)   bands (ev):

   -43.8627 -20.2983 -20.2973 -20.2973  -4.4210  -4.3903  -4.3899  -2.7766
    -2.7766  -2.3869  -2.3754  -2.3753   5.9719   6.5197   6.5201   7.4978
     7.7324   7.8063   7.8065  12.1021  12.1026  12.1147  16.6957  16.7542
    16.7547  19.8453

          k =-0.0500 0.1500 0.0500 (  4525 PWs)   bands (ev):

   -43.8688 -20.2278 -20.2069 -20.2067  -5.8163  -4.6265  -4.6100  -2.8576
    -2.8538  -2.8409  -2.7382  -2.6856   6.1915   8.4201   8.4363   8.9894
    10.5105  10.5505  10.8766  11.1712  11.4439  11.4728  14.5501  14.9546
    14.9573  17.2730

          k =-0.0500 0.2500 0.0500 (  4518 PWs)   bands (ev):

   -43.8681 -20.2587 -20.2057 -20.2056  -5.6320  -4.5629  -4.5207  -2.8855
    -2.8714  -2.8393  -2.8065  -2.6684   5.6794   8.4838   8.5550   8.8580
    10.1810  10.2241  10.8226  11.1743  11.4420  11.6192  14.5509  15.5270
    15.5361  17.2727

          k =-0.0500 0.3500 0.0500 (  4521 PWs)   bands (ev):

   -43.8675 -20.2894 -20.2045 -20.2044  -5.4420  -4.4933  -4.4276  -2.9288
    -2.8875  -2.8654  -2.8377  -2.6531   5.3159   8.0586   8.6923   8.8589
     9.8723   9.8826  10.7565  11.3070  11.4771  12.1871  14.5504  16.0586
    16.0677  16.8393

          k =-0.0500 0.4500 0.0500 (  4510 PWs)   bands (ev):

   -43.8670 -20.3081 -20.2037 -20.2037  -5.3215  -4.4465  -4.3678  -2.9710
    -2.8967  -2.8899  -2.8367  -2.6446   5.1439   7.6354   8.7966   9.0275
     9.6149   9.6768  10.7145  11.3672  11.5084  12.7809  14.5467  15.9898
    16.3772  16.3841

          k = 0.1500 0.0500 0.1500 (  4521 PWs)   bands (ev):

   -43.8684 -20.2264 -20.2256 -20.2070  -5.7075  -4.5900  -4.5643  -2.8753
    -2.8562  -2.8511  -2.7297  -2.7004   5.8761   8.3648   8.4964   9.2329
    10.1863  10.3854  10.8559  11.0568  11.2802  11.4927  14.9256  14.9793
    15.2536  17.5738

          k =-0.0500 0.2500 0.1500 (  4518 PWs)   bands (ev):

   -43.8677 -20.2579 -20.2247 -20.2049  -5.5297  -4.5356  -4.4770  -2.9021
    -2.8705  -2.8519  -2.7621  -2.6876   5.4680   8.3355   8.5956   9.0555
     9.8516  10.1364  10.6659  11.0815  11.2223  11.7712  14.9462  15.5330
    15.7375  17.6472

          k = 0.2500 0.0500 0.1500 (  4518 PWs)   bands (ev):

   -43.8677 -20.2568 -20.2247 -20.2058  -5.5299  -4.5356  -4.4773  -2.9024
    -2.8703  -2.8519  -2.7623  -2.6870   5.4681   8.3359   8.5984   9.0549
     9.8512  10.1371  10.6657  11.0818  11.2223  11.7710  14.9490  15.5275
    15.7350  17.6497

          k =-0.0500 0.3500 0.1500 (  4513 PWs)   bands (ev):

   -43.8670 -20.2884 -20.2234 -20.2037  -5.3519  -4.4755  -4.3820  -2.9334
    -2.8835  -2.8511  -2.7981  -2.6727   5.1473   8.0242   8.6238   8.9509
     9.5749   9.8841  10.6987  11.0609  11.2386  12.2173  14.9385  16.0628
    16.2093  17.0234

          k = 0.3500 0.0500 0.1500 (  4513 PWs)   bands (ev):

   -43.8670 -20.2874 -20.2234 -20.2046  -5.3522  -4.4756  -4.3826  -2.9339
    -2.8829  -2.8511  -2.7983  -2.6722   5.1477   8.0250   8.6276   8.9539
     9.5721   9.8859  10.6936  11.0607  11.2410  12.2159  14.9416  16.0576
    16.2069  17.0250

          k =-0.0500 0.4500 0.1500 (  4506 PWs)   bands (ev):

   -43.8666 -20.3071 -20.2226 -20.2029  -5.2432  -4.4337  -4.3191  -2.9573
    -2.8938  -2.8505  -2.8125  -2.6669   4.9860   7.6433   8.6461   9.1290
     9.3801   9.6551  10.7809  11.0310  11.2638  12.5630  14.9221  16.3790
    16.4425  16.5030

          k = 0.4500 0.0500 0.1500 (  4506 PWs)   bands (ev):

   -43.8666 -20.3061 -20.2226 -20.2039  -5.2435  -4.4338  -4.3199  -2.9577
    -2.8931  -2.8505  -2.8128  -2.6665   4.9866   7.6446   8.6521   9.1355
     9.3762   9.6519  10.7744  11.0314  11.2665  12.5616  14.9252  16.3747
    16.4456  16.4987

          k = 0.2500 0.0500 0.2500 (  4520 PWs)   bands (ev):

   -43.8670 -20.2560 -20.2548 -20.2046  -5.3718  -4.4864  -4.3940  -2.9103
    -2.8753  -2.8637  -2.7163  -2.7148   5.1591   8.2422   8.6970   8.8801
     9.6664   9.7545  10.3623  10.9886  11.3393  11.9415  15.4742  15.5681
    16.0896  17.6742

          k =-0.0500 0.3500 0.2500 (  4508 PWs)   bands (ev):

   -43.8664 -20.2868 -20.2539 -20.2024  -5.2293  -4.4172  -4.2992  -2.9220
    -2.8832  -2.8684  -2.7284  -2.6879   4.8895   7.9979   8.5622   8.7756
     9.4155   9.7163  10.1974  10.9123  11.4617  12.0933  15.5046  16.0608
    16.4588  17.3271

          k = 0.3500 0.0500 0.2500 (  4508 PWs)   bands (ev):

   -43.8664 -20.2858 -20.2539 -20.2034  -5.2298  -4.4172  -4.2999  -2.9225
    -2.8827  -2.8679  -2.7282  -2.6881   4.8895   8.0002   8.5618   8.7777
     9.4139   9.7179  10.1968  10.9141  11.4633  12.0916  15.5050  16.0556
    16.4571  17.3281

          k =-0.0500 0.4500 0.2500 (  4499 PWs)   bands (ev):

   -43.8660 -20.3054 -20.2530 -20.2016  -5.1534  -4.3600  -4.2348  -2.9345
    -2.8924  -2.8702  -2.7138  -2.6868   4.7428   7.6594   8.5728   8.6988
     9.4256   9.6106  10.1645  10.9171  11.4710  12.1764  15.4939  16.3783
    16.7004  17.1180

          k = 0.4500 0.0500 0.2500 (  4499 PWs)   bands (ev):

   -43.8660 -20.3044 -20.2530 -20.2026  -5.1539  -4.3600  -4.2357  -2.9348
    -2.8916  -2.8700  -2.7134  -2.6873   4.7428   7.6619   8.5792   8.6934
     9.4289   9.6108  10.1608  10.9193  11.4724  12.1748  15.4944  16.3738
    16.6990  17.1176

          k = 0.3500 0.0500 0.3500 (  4507 PWs)   bands (ev):

   -43.8657 -20.2845 -20.2837 -20.2021  -5.1455  -4.3089  -4.2077  -2.9176
    -2.8885  -2.8735  -2.7433  -2.6250   4.6509   7.9841   8.0912   8.8318
     9.1758   9.6407  10.0564  10.6964  11.7967  11.8384  16.0042  16.0842
    16.7284  17.6160

          k =-0.0500 0.4500 0.3500 (  4503 PWs)   bands (ev):

   -43.8653 -20.3037 -20.2831 -20.2004  -5.1125  -4.2173  -4.1427  -2.9213
    -2.8917  -2.8822  -2.7510  -2.5815   4.5146   7.6771   8.0554   8.7501
     9.1276   9.7179   9.9475  10.6265  11.6176  11.9795  16.0372  16.3760
    16.9324  17.7541

          k = 0.4500 0.0500 0.3500 (  4503 PWs)   bands (ev):

   -43.8653 -20.3027 -20.2832 -20.2014  -5.1131  -4.2170  -4.1439  -2.9216
    -2.8908  -2.8813  -2.7507  -2.5823   4.5139   7.6809   8.0541   8.7504
     9.1271   9.7245   9.9445  10.6270  11.6182  11.9795  16.0380  16.3715
    16.9288  17.7532

          k = 0.4500 0.0500 0.4500 (  4506 PWs)   bands (ev):

   -43.8649 -20.3017 -20.3016 -20.2006  -5.1070  -4.0992  -4.0821  -2.9217
    -2.8903  -2.8867  -2.7739  -2.5179   4.3795   7.6286   7.7666   8.8416
     8.8778   9.8352   9.9014  10.4687  11.3541  12.1561  16.3626  16.3756
    17.0983  18.0722

          k =-0.1500 0.2500 0.1500 (  4515 PWs)   bands (ev):

   -43.8673 -20.2570 -20.2242 -20.2236  -5.4238  -4.5042  -4.4563  -2.9098
    -2.8777  -2.8478  -2.7312  -2.6861   5.3508   8.2877   8.2940   9.1194
     9.7226   9.8763  10.7597  11.1365  11.2047  11.6518  15.2124  15.7022
    15.7231  17.7589

          k =-0.1500 0.3500 0.1500 (  4502 PWs)   bands (ev):

   -43.8666 -20.2874 -20.2229 -20.2224  -5.2521  -4.4654  -4.3584  -2.9324
    -2.8687  -2.8408  -2.7626  -2.6717   5.0755   8.0220   8.2222   8.8177
     9.5378   9.9408  10.4487  11.1814  11.2437  12.0469  15.1379  16.1608
    16.1691  17.1749

          k =-0.1500 0.4500 0.1500 (  4508 PWs)   bands (ev):

   -43.8662 -20.3061 -20.2220 -20.2217  -5.1497  -4.4407  -4.2891  -2.9418
    -2.8622  -2.8304  -2.7873  -2.6687   4.9288   7.6518   8.1676   8.8725
     9.4599   9.9421  10.3065  11.1941  11.2640  12.2626  15.0607  16.4358
    16.4669  16.9134

          k = 0.2500 0.1500 0.2500 (  4503 PWs)   bands (ev):

   -43.8666 -20.2551 -20.2540 -20.2236  -5.2601  -4.4625  -4.3995  -2.9117
    -2.8871  -2.8340  -2.6935  -2.6889   5.1435   8.1191   8.1967   8.9068
     9.2708   9.6816  10.9026  10.9696  11.3700  11.7138  15.5662  15.6993
    16.0126  17.4806

          k =-0.1500 0.3500 0.2500 (  4503 PWs)   bands (ev):

   -43.8660 -20.2859 -20.2531 -20.2214  -5.1135  -4.4246  -4.3110  -2.9170
    -2.8766  -2.8164  -2.6976  -2.6676   4.9329   7.9379   8.0851   8.4489
     9.0825   9.7298  10.6183  11.0592  11.4899  11.7984  15.5066  16.0825
    16.3469  17.4450

          k = 0.3500 0.1500 0.2500 (  4503 PWs)   bands (ev):

   -43.8660 -20.2848 -20.2531 -20.2224  -5.1138  -4.4246  -4.3116  -2.9171
    -2.8765  -2.8161  -2.6975  -2.6677   4.9329   7.9396   8.0872   8.4477
     9.0812   9.7313  10.6202  11.0586  11.4910  11.7963  15.5078  16.0785
    16.3459  17.4456

          k =-0.1500 0.4500 0.2500 (  4499 PWs)   bands (ev):

   -43.8655 -20.3045 -20.2522 -20.2206  -5.0364  -4.3993  -4.2392  -2.9170
    -2.8672  -2.8058  -2.6898  -2.6692   4.8089   7.6613   7.9316   8.3976
     9.0565   9.8271  10.3883  11.1232  11.4921  11.8048  15.4614  16.3664
    16.5949  17.5399

          k = 0.4500 0.1500 0.2500 (  4499 PWs)   bands (ev):

   -43.8655 -20.3034 -20.2522 -20.2216  -5.0367  -4.3994  -4.2400  -2.9170
    -2.8671  -2.8053  -2.6895  -2.6697   4.8090   7.6636   7.9345   8.3956
     9.0548   9.8304  10.3886  11.1226  11.4926  11.8033  15.4625  16.3624
    16.5941  17.5400

          k = 0.3500 0.1500 0.3500 (  4508 PWs)   bands (ev):

   -43.8653 -20.2836 -20.2829 -20.2211  -5.0189  -4.3391  -4.2510  -2.9075
    -2.8636  -2.7966  -2.6988  -2.6069   4.7683   7.8691   8.0025   8.1255
     8.5348   9.7245  10.7758  10.8147  11.4418  11.7994  15.8750  16.0974
    16.5749  17.7691

          k =-0.1500 0.4500 0.3500 (  4514 PWs)   bands (ev):

   -43.8649 -20.3028 -20.2823 -20.2193  -4.9843  -4.2785  -4.1888  -2.9027
    -2.8452  -2.7890  -2.7098  -2.5637   4.6622   7.6672   7.9275   7.9624
     8.4325   9.7740  10.5895  10.9006  11.1623  11.9492  15.9557  16.3184
    16.7708  18.0836

          k = 0.4500 0.1500 0.3500 (  4514 PWs)   bands (ev):

   -43.8649 -20.3018 -20.2823 -20.2203  -4.9847  -4.2785  -4.1897  -2.9026
    -2.8449  -2.7885  -2.7092  -2.5645   4.6616   7.6725   7.9280   7.9592
     8.4331   9.7751  10.5907  10.9005  11.1615  11.9501  15.9562  16.3147
    16.7694  18.0838

          k = 0.4500 0.1500 0.4500 (  4512 PWs)   bands (ev):

   -43.8645 -20.3008 -20.3007 -20.2195  -4.9782  -4.1716  -4.1562  -2.8960
    -2.8090  -2.7763  -2.7439  -2.4985   4.5612   7.6206   7.7460   8.0018
     8.0715   9.7991  10.6319  10.7541  10.8265  12.1469  16.2778  16.3149
    16.9219  18.4184

          k =-0.2500 0.3500 0.2500 (  4503 PWs)   bands (ev):

   -43.8653 -20.2844 -20.2521 -20.2515  -4.9412  -4.4193  -4.3229  -2.8900
    -2.8680  -2.7534  -2.6386  -2.6373   4.9739   7.5965   7.7763   8.2288
     8.8970   9.0265  10.9759  11.3555  11.4094  11.5953  15.5960  16.1297
    16.3303  17.7426

          k =-0.2500 0.4500 0.2500 (  4503 PWs)   bands (ev):

   -43.8649 -20.3029 -20.2512 -20.2507  -4.8689  -4.4259  -4.2463  -2.8838
    -2.8524  -2.7031  -2.6422  -2.6297   4.8945   7.4342   7.6587   7.9327
     8.8646   9.0826  10.7195  11.3645  11.3917  11.6621  15.6459  16.3182
    16.5848  18.0759

          k = 0.3500 0.2500 0.3500 (  4511 PWs)   bands (ev):

   -43.8646 -20.2822 -20.2816 -20.2515  -4.8163  -4.3760  -4.3147  -2.8693
    -2.8406  -2.6985  -2.6150  -2.5708   4.9653   7.4056   7.4886   8.1081
     8.2683   8.9376  10.5762  11.4193  11.4548  11.8075  15.8253  16.2232
    16.4957  18.1315

          k =-0.2500 0.4500 0.3500 (  4513 PWs)   bands (ev):

   -43.8642 -20.3014 -20.2810 -20.2496  -4.7754  -4.3616  -4.2543  -2.8604
    -2.8168  -2.6511  -2.6154  -2.5278   4.9328   7.2464   7.4807   7.7014
     8.2077   8.9443  10.1732  11.4264  11.4720  11.9404  16.0128  16.3271
    16.6893  18.5408

          k = 0.4500 0.2500 0.3500 (  4513 PWs)   bands (ev):

   -43.8642 -20.3004 -20.2810 -20.2506  -4.7755  -4.3615  -4.2550  -2.8603
    -2.8167  -2.6504  -2.6150  -2.5287   4.9325   7.2489   7.4794   7.7029
     8.2077   8.9443  10.1730  11.4274  11.4711  11.9413  16.0131  16.3244
    16.6892  18.5413

          k = 0.4500 0.2500 0.4500 (  4521 PWs)   bands (ev):

   -43.8638 -20.2995 -20.2994 -20.2498  -4.7651  -4.2705  -4.2572  -2.8506
    -2.7847  -2.6179  -2.6055  -2.4608   4.9216   7.2693   7.2992   7.6206
     7.8088   8.9390   9.6873  11.4628  11.4667  12.1321  16.2996  16.3594
    16.8221  18.9186

          k =-0.3500 0.4500 0.3500 (  4511 PWs)   bands (ev):

   -43.8635 -20.3000 -20.2798 -20.2795  -4.5881  -4.4054  -4.3126  -2.8193
    -2.7991  -2.5392  -2.5073  -2.4731   5.2457   6.8445   7.0272   7.6795
     8.1511   8.2045   9.2758  11.7913  11.8521  11.9690  16.2563  16.4703
    16.6880  19.0127

          k = 0.4500 0.3500 0.4500 (  4526 PWs)   bands (ev):

   -43.8631 -20.2981 -20.2981 -20.2799  -4.5472  -4.3541  -4.3428  -2.8049
    -2.7791  -2.4725  -2.4613  -2.4126   5.4388   6.7564   6.7909   7.5888
     7.8047   8.1770   8.6124  11.9101  11.9118  12.1176  16.4927  16.5575
    16.7757  19.4333

     the Fermi energy is    12.6906 ev

!    total energy              =    -364.92058082 Ry
     Harris-Foulkes estimate   =    -364.92058082 Ry
     estimated scf accuracy    <          1.4E-11 Ry

     The total energy is the sum of the following terms:

     one-electron contribution =     -66.91216775 Ry
     hartree contribution      =      66.17748703 Ry
     xc contribution           =     -86.21901940 Ry
     ewald contribution        =    -277.97018748 Ry
     smearing contrib. (-TS)   =       0.00330678 Ry

     convergence has been achieved in   8 iterations

     Forces acting on atoms (cartesian axes, Ry/au):

     atom    1 type  1   force =     0.00000000   -0.00027493    0.00000000
     atom    2 type  2   force =     0.00000000    0.00008094    0.00000000
     atom    3 type  3   force =     0.00000000    0.00006592    0.00000000
     atom    4 type  3   force =     0.00000000    0.00006216    0.00000000
     atom    5 type  3   force =     0.00000000    0.00006592    0.00000000

     Total force =     0.000138     Total SCF correction =     0.000006


     Computing stress (Cartesian axis) and pressure

          total   stress  (Ry/bohr**3)                   (kbar)     P=  263.97
   0.00179275   0.00000000   0.00000000        263.72      0.00      0.00
   0.00000000   0.00179771   0.00000000          0.00    264.45      0.00
   0.00000000   0.00000000   0.00179275          0.00      0.00    263.72


     bfgs converged in   9 scf cycles and   8 bfgs steps
     (criteria: energy <  1.0E-04 Ry, force <  1.0E-03 Ry/Bohr)

     End of BFGS Geometry Optimization

     Final energy   =    -364.9205808212 Ry
Begin final coordinates

ATOMIC_POSITIONS (crystal)
Pb       0.000000000   0.000000000   0.000000000    0   0   0
Ti       0.500000000   0.499993224   0.500000000
O        0.500000000   0.506281127   0.000000000
O        0.500000000   0.004082251   0.500000000
O        0.000000000   0.506281127   0.500000000
End final coordinates



     Writing output data file PbTiO3.save/

     init_run     :     10.88s CPU     14.41s WALL (       1 calls)
     electrons    :   1991.30s CPU   2788.31s WALL (       9 calls)
     update_pot   :      2.96s CPU      3.10s WALL (       8 calls)
     forces       :     41.85s CPU     47.89s WALL (       9 calls)
     stress       :    109.79s CPU    119.35s WALL (       9 calls)

     Called by init_run:
     wfcinit      :      8.09s CPU     11.39s WALL (       1 calls)
     potinit      :      0.29s CPU      0.30s WALL (       1 calls)
     hinit0       :      1.89s CPU      1.91s WALL (       1 calls)

     Called by electrons:
     c_bands      :   1715.57s CPU   2349.26s WALL (      78 calls)
     sum_band     :    220.31s CPU    363.72s WALL (      78 calls)
     v_of_rho     :     16.74s CPU     18.22s WALL (      84 calls)
     newd         :     42.84s CPU     62.91s WALL (      84 calls)
     mix_rho      :      1.36s CPU      1.59s WALL (      78 calls)

     Called by c_bands:
     init_us_2    :     27.33s CPU     36.29s WALL (   13125 calls)
     cegterg      :   1634.44s CPU   2259.78s WALL (    5850 calls)

     Called by sum_band:
     sum_band:bec :      0.35s CPU      0.51s WALL (    5850 calls)
     addusdens    :     54.53s CPU     73.36s WALL (      78 calls)

     Called by *egterg:
     h_psi        :    918.67s CPU   1465.49s WALL (   25116 calls)
     s_psi        :    163.67s CPU    183.32s WALL (   25116 calls)
     g_psi        :     14.38s CPU     19.62s WALL (   19191 calls)
     cdiaghg      :     31.30s CPU     42.18s WALL (   24216 calls)

     Called by h_psi:
     h_psi:pot    :    915.10s CPU   1459.82s WALL (   25116 calls)
     h_psi:calbec :    162.42s CPU    182.83s WALL (   25116 calls)
     vloc_psi     :    583.81s CPU   1091.66s WALL (   25116 calls)
     add_vuspsi   :    167.16s CPU    183.27s WALL (   25116 calls)

     General routines
     calbec       :    257.19s CPU    286.77s WALL (   34341 calls)
     fft          :      7.69s CPU      8.63s WALL (    1310 calls)
     ffts         :      0.17s CPU      0.30s WALL (     162 calls)
     fftw         :    599.33s CPU   1137.84s WALL ( 1001110 calls)
     interpolate  :      0.64s CPU      0.86s WALL (      84 calls)

     Parallel routines

     PWSCF        :  36m 2.02s CPU  49m40.43s WALL


   This run was terminated on:   9:25:56  14May2020            

=------------------------------------------------------------------------------=
   JOB DONE.
=------------------------------------------------------------------------------=
