
     Program PWSCF v.6.4.1 starts on 13May2020 at 15:19:45 

     This program is part of the open-source Quantum ESPRESSO suite
     for quantum simulation of materials; please cite
         "P. Giannozzi et al., J. Phys.:Condens. Matter 21 395502 (2009);
         "P. Giannozzi et al., J. Phys.:Condens. Matter 29 465901 (2017);
          URL http://www.quantum-espresso.org", 
     in publications or presentations arising from this work. More details at
     http://www.quantum-espresso.org/quote

     Parallel version (MPI & OpenMP), running on       1 processor cores
     Number of MPI processes:                 1
     Threads/MPI process:                     1

     MPI processes distributed on     1 nodes
     Reading input from PTO_7.49_10_0.54.pw.in
Warning: card  &CELL ignored
Warning: card   CELL_DYNAMICS = 'BFGS', ignored
Warning: card  / ignored

     Current dimensions of program PWSCF are:
     Max number of different atomic species (ntypx) = 10
     Max number of k-points (npk) =  40000
     Max angular momentum in pseudopotentials (lmaxx) =  3
     Message from routine read_upf::
     Pseudo file Pb.pbe-dn-rrkjus_psl.0.2.2.UPF has been fixed on the fly.
To avoid this message in the future, permanently fix 
 your pseudo files following these instructions: 
https://gitlab.com/QEF/q-e/blob/master/upftools/how_to_fix_upf.md
     Message from routine read_upf::
     Pseudo file O.pbe-n-rrkjus_psl.0.1.UPF has been fixed on the fly.
To avoid this message in the future, permanently fix 
 your pseudo files following these instructions: 
https://gitlab.com/QEF/q-e/blob/master/upftools/how_to_fix_upf.md
               file Pb.pbe-dn-rrkjus_psl.0.2.2.UPF: wavefunction(s)  6S renormalized

     Subspace diagonalization in iterative solution of the eigenvalue problem:
     a serial algorithm will be used

 
     G-vector sticks info
     --------------------
     sticks:   dense  smooth     PW     G-vecs:    dense   smooth      PW
     Sum        3569    1433    421               160467    40651    6235
 


     bravais-lattice index     =            1
     lattice parameter (alat)  =       7.4900  a.u.
     unit-cell volume          =     420.1897 (a.u.)^3
     number of atoms/cell      =            5
     number of atomic types    =            3
     number of electrons       =        44.00
     number of Kohn-Sham states=           26
     kinetic-energy cutoff     =      80.0000  Ry
     charge density cutoff     =     800.0000  Ry
     convergence threshold     =      1.0E-08
     mixing beta               =       0.7000
     number of iterations used =            8  plain     mixing
     Exchange-correlation      = PBE ( 1  4  3  4 0 0)
     nstep                     =           50


     celldm(1)=   7.490000  celldm(2)=   0.000000  celldm(3)=   0.000000
     celldm(4)=   0.000000  celldm(5)=   0.000000  celldm(6)=   0.000000

     crystal axes: (cart. coord. in units of alat)
               a(1) = (   1.000000   0.000000   0.000000 )  
               a(2) = (   0.000000   1.000000   0.000000 )  
               a(3) = (   0.000000   0.000000   1.000000 )  

     reciprocal axes: (cart. coord. in units 2 pi/alat)
               b(1) = (  1.000000  0.000000  0.000000 )  
               b(2) = (  0.000000  1.000000  0.000000 )  
               b(3) = (  0.000000  0.000000  1.000000 )  


     PseudoPot. # 1 for Pb read from file:
     ./Pb.pbe-dn-rrkjus_psl.0.2.2.UPF
     MD5 check sum: 7afc420059c37d6888fc09c0f121e83f
     Pseudo is Ultrasoft + core correction, Zval = 14.0
     Generated using "atomic" code by A. Dal Corso v.5.0.2 svn rev. 9415
     Using radial grid of 1281 points,  6 beta functions with: 
                l(1) =   0
                l(2) =   0
                l(3) =   1
                l(4) =   1
                l(5) =   2
                l(6) =   2
     Q(r) pseudized with 0 coefficients 


     PseudoPot. # 2 for Ti read from file:
     ./Ti.pbe-sp-van_ak.UPF
     MD5 check sum: 8e4df49b7f0d34bbd5052bf3f5ea0213
     Pseudo is Ultrasoft, Zval = 12.0
     Generated by new atomic code, or converted to UPF format
     Using radial grid of  851 points,  6 beta functions with: 
                l(1) =   0
                l(2) =   0
                l(3) =   1
                l(4) =   1
                l(5) =   2
                l(6) =   2
     Q(r) pseudized with  8 coefficients,  rinner =    1.000   1.000   1.000
                                                       1.000   1.000

     PseudoPot. # 3 for O  read from file:
     ./O.pbe-n-rrkjus_psl.0.1.UPF
     MD5 check sum: e057bbcf3229fb5d8c36c0c92f9568b4
     Pseudo is Ultrasoft + core correction, Zval =  6.0
     Generated using "atomic" code by A. Dal Corso v.5.0.2 svn rev. 9415
     Using radial grid of 1095 points,  4 beta functions with: 
                l(1) =   0
                l(2) =   0
                l(3) =   1
                l(4) =   1
     Q(r) pseudized with 0 coefficients 


     atomic species   valence    mass     pseudopotential
        Pb            14.00   207.20000     Pb( 1.00)
        Ti            12.00    47.87000     Ti( 1.00)
        O              6.00    16.00000     O ( 1.00)

      8 Sym. Ops. (no inversion) found



   Cartesian axes

     site n.     atom                  positions (alat units)
         1           Pb  tau(   1) = (   0.0000000   0.0000000   0.0000000  )
         2           Ti  tau(   2) = (   0.5000000   0.5400000   0.5000000  )
         3           O   tau(   3) = (   0.5000000   0.5000000   0.0000000  )
         4           O   tau(   4) = (   0.5000000   0.0000000   0.5000000  )
         5           O   tau(   5) = (   0.0000000   0.5000000   0.5000000  )

     number of k points=    75  Marzari-Vanderbilt smearing, width (Ry)=  0.0250
                       cart. coord. in units 2pi/alat
        k(    1) = (   0.0500000   0.0500000   0.0500000), wk =   0.0160000
        k(    2) = (   0.0500000   0.0500000   0.1500000), wk =   0.0320000
        k(    3) = (   0.0500000   0.0500000   0.2500000), wk =   0.0320000
        k(    4) = (   0.0500000   0.0500000   0.3500000), wk =   0.0320000
        k(    5) = (   0.0500000   0.0500000   0.4500000), wk =   0.0320000
        k(    6) = (   0.0500000   0.1500000   0.1500000), wk =   0.0320000
        k(    7) = (   0.0500000   0.1500000   0.2500000), wk =   0.0320000
        k(    8) = (   0.0500000   0.1500000   0.3500000), wk =   0.0320000
        k(    9) = (   0.0500000   0.1500000   0.4500000), wk =   0.0320000
        k(   10) = (   0.0500000   0.2500000   0.2500000), wk =   0.0320000
        k(   11) = (   0.0500000   0.2500000   0.3500000), wk =   0.0320000
        k(   12) = (   0.0500000   0.2500000   0.4500000), wk =   0.0320000
        k(   13) = (   0.0500000   0.3500000   0.3500000), wk =   0.0320000
        k(   14) = (   0.0500000   0.3500000   0.4500000), wk =   0.0320000
        k(   15) = (   0.0500000   0.4500000   0.4500000), wk =   0.0320000
        k(   16) = (   0.1500000   0.1500000   0.1500000), wk =   0.0160000
        k(   17) = (   0.1500000   0.1500000   0.2500000), wk =   0.0320000
        k(   18) = (   0.1500000   0.1500000   0.3500000), wk =   0.0320000
        k(   19) = (   0.1500000   0.1500000   0.4500000), wk =   0.0320000
        k(   20) = (   0.1500000   0.2500000   0.2500000), wk =   0.0320000
        k(   21) = (   0.1500000   0.2500000   0.3500000), wk =   0.0320000
        k(   22) = (   0.1500000   0.2500000   0.4500000), wk =   0.0320000
        k(   23) = (   0.1500000   0.3500000   0.3500000), wk =   0.0320000
        k(   24) = (   0.1500000   0.3500000   0.4500000), wk =   0.0320000
        k(   25) = (   0.1500000   0.4500000   0.4500000), wk =   0.0320000
        k(   26) = (   0.2500000   0.2500000   0.2500000), wk =   0.0160000
        k(   27) = (   0.2500000   0.2500000   0.3500000), wk =   0.0320000
        k(   28) = (   0.2500000   0.2500000   0.4500000), wk =   0.0320000
        k(   29) = (   0.2500000   0.3500000   0.3500000), wk =   0.0320000
        k(   30) = (   0.2500000   0.3500000   0.4500000), wk =   0.0320000
        k(   31) = (   0.2500000   0.4500000   0.4500000), wk =   0.0320000
        k(   32) = (   0.3500000   0.3500000   0.3500000), wk =   0.0160000
        k(   33) = (   0.3500000   0.3500000   0.4500000), wk =   0.0320000
        k(   34) = (   0.3500000   0.4500000   0.4500000), wk =   0.0320000
        k(   35) = (   0.4500000   0.4500000   0.4500000), wk =   0.0160000
        k(   36) = (  -0.0500000   0.1500000   0.0500000), wk =   0.0160000
        k(   37) = (  -0.0500000   0.2500000   0.0500000), wk =   0.0160000
        k(   38) = (  -0.0500000   0.3500000   0.0500000), wk =   0.0160000
        k(   39) = (  -0.0500000   0.4500000   0.0500000), wk =   0.0160000
        k(   40) = (   0.1500000   0.0500000   0.1500000), wk =   0.0160000
        k(   41) = (  -0.0500000   0.2500000   0.1500000), wk =   0.0320000
        k(   42) = (   0.2500000   0.0500000   0.1500000), wk =   0.0320000
        k(   43) = (  -0.0500000   0.3500000   0.1500000), wk =   0.0320000
        k(   44) = (   0.3500000   0.0500000   0.1500000), wk =   0.0320000
        k(   45) = (  -0.0500000   0.4500000   0.1500000), wk =   0.0320000
        k(   46) = (   0.4500000   0.0500000   0.1500000), wk =   0.0320000
        k(   47) = (   0.2500000   0.0500000   0.2500000), wk =   0.0160000
        k(   48) = (  -0.0500000   0.3500000   0.2500000), wk =   0.0320000
        k(   49) = (   0.3500000   0.0500000   0.2500000), wk =   0.0320000
        k(   50) = (  -0.0500000   0.4500000   0.2500000), wk =   0.0320000
        k(   51) = (   0.4500000   0.0500000   0.2500000), wk =   0.0320000
        k(   52) = (   0.3500000   0.0500000   0.3500000), wk =   0.0160000
        k(   53) = (  -0.0500000   0.4500000   0.3500000), wk =   0.0320000
        k(   54) = (   0.4500000   0.0500000   0.3500000), wk =   0.0320000
        k(   55) = (   0.4500000   0.0500000   0.4500000), wk =   0.0160000
        k(   56) = (  -0.1500000   0.2500000   0.1500000), wk =   0.0160000
        k(   57) = (  -0.1500000   0.3500000   0.1500000), wk =   0.0160000
        k(   58) = (  -0.1500000   0.4500000   0.1500000), wk =   0.0160000
        k(   59) = (   0.2500000   0.1500000   0.2500000), wk =   0.0160000
        k(   60) = (  -0.1500000   0.3500000   0.2500000), wk =   0.0320000
        k(   61) = (   0.3500000   0.1500000   0.2500000), wk =   0.0320000
        k(   62) = (  -0.1500000   0.4500000   0.2500000), wk =   0.0320000
        k(   63) = (   0.4500000   0.1500000   0.2500000), wk =   0.0320000
        k(   64) = (   0.3500000   0.1500000   0.3500000), wk =   0.0160000
        k(   65) = (  -0.1500000   0.4500000   0.3500000), wk =   0.0320000
        k(   66) = (   0.4500000   0.1500000   0.3500000), wk =   0.0320000
        k(   67) = (   0.4500000   0.1500000   0.4500000), wk =   0.0160000
        k(   68) = (  -0.2500000   0.3500000   0.2500000), wk =   0.0160000
        k(   69) = (  -0.2500000   0.4500000   0.2500000), wk =   0.0160000
        k(   70) = (   0.3500000   0.2500000   0.3500000), wk =   0.0160000
        k(   71) = (  -0.2500000   0.4500000   0.3500000), wk =   0.0320000
        k(   72) = (   0.4500000   0.2500000   0.3500000), wk =   0.0320000
        k(   73) = (   0.4500000   0.2500000   0.4500000), wk =   0.0160000
        k(   74) = (  -0.3500000   0.4500000   0.3500000), wk =   0.0160000
        k(   75) = (   0.4500000   0.3500000   0.4500000), wk =   0.0160000

     Dense  grid:   160467 G-vectors     FFT dimensions: (  72,  72,  72)

     Smooth grid:    40651 G-vectors     FFT dimensions: (  45,  45,  45)

     Estimated max dynamical RAM per process >     759.22 MB

     Check: negative core charge=   -0.000006

     Initial potential from superposition of free atoms

     starting charge   42.99760, renormalised to   44.00000
     Starting wfcs are   31 randomized atomic wfcs

     total cpu time spent up to now is       11.2 secs

     Self-consistent Calculation

     iteration #  1     ecut=    80.00 Ry     beta= 0.70
     Davidson diagonalization with overlap
     ethr =  1.00E-02,  avg # of iterations =  2.0

     total cpu time spent up to now is       31.1 secs

     total energy              =    -364.39764382 Ry
     Harris-Foulkes estimate   =    -365.28811815 Ry
     estimated scf accuracy    <       1.11728908 Ry

     iteration #  2     ecut=    80.00 Ry     beta= 0.70
     Davidson diagonalization with overlap
     ethr =  2.54E-03,  avg # of iterations =  4.0

     total cpu time spent up to now is       58.3 secs

     total energy              =    -363.28113798 Ry
     Harris-Foulkes estimate   =    -365.79181748 Ry
     estimated scf accuracy    <       9.50562565 Ry

     iteration #  3     ecut=    80.00 Ry     beta= 0.70
     Davidson diagonalization with overlap
     ethr =  2.54E-03,  avg # of iterations =  5.0

     total cpu time spent up to now is       86.3 secs

     total energy              =    -364.93275301 Ry
     Harris-Foulkes estimate   =    -365.10336383 Ry
     estimated scf accuracy    <       0.46278236 Ry

     iteration #  4     ecut=    80.00 Ry     beta= 0.70
     Davidson diagonalization with overlap
     ethr =  1.05E-03,  avg # of iterations =  3.0

     total cpu time spent up to now is      105.9 secs

     total energy              =    -364.91804178 Ry
     Harris-Foulkes estimate   =    -364.96731454 Ry
     estimated scf accuracy    <       0.17125627 Ry

     iteration #  5     ecut=    80.00 Ry     beta= 0.70
     Davidson diagonalization with overlap
     ethr =  3.89E-04,  avg # of iterations =  4.5

     total cpu time spent up to now is      129.7 secs

     total energy              =    -364.95542270 Ry
     Harris-Foulkes estimate   =    -364.95557001 Ry
     estimated scf accuracy    <       0.00090890 Ry

     iteration #  6     ecut=    80.00 Ry     beta= 0.70
     Davidson diagonalization with overlap
     c_bands:  1 eigenvalues not converged
     ethr =  2.07E-06,  avg # of iterations =  5.3

     total cpu time spent up to now is      160.2 secs

     total energy              =    -364.95583924 Ry
     Harris-Foulkes estimate   =    -364.95612171 Ry
     estimated scf accuracy    <       0.00112474 Ry

     iteration #  7     ecut=    80.00 Ry     beta= 0.70
     Davidson diagonalization with overlap
     ethr =  2.07E-06,  avg # of iterations =  2.7

     total cpu time spent up to now is      180.6 secs

     total energy              =    -364.95579647 Ry
     Harris-Foulkes estimate   =    -364.95601109 Ry
     estimated scf accuracy    <       0.00058312 Ry

     iteration #  8     ecut=    80.00 Ry     beta= 0.70
     Davidson diagonalization with overlap
     ethr =  1.33E-06,  avg # of iterations =  3.2

     total cpu time spent up to now is      202.7 secs

     total energy              =    -364.95591406 Ry
     Harris-Foulkes estimate   =    -364.95592937 Ry
     estimated scf accuracy    <       0.00005445 Ry

     iteration #  9     ecut=    80.00 Ry     beta= 0.70
     Davidson diagonalization with overlap
     ethr =  1.24E-07,  avg # of iterations =  2.7

     total cpu time spent up to now is      223.4 secs

     total energy              =    -364.95590993 Ry
     Harris-Foulkes estimate   =    -364.95592207 Ry
     estimated scf accuracy    <       0.00003151 Ry

     iteration # 10     ecut=    80.00 Ry     beta= 0.70
     Davidson diagonalization with overlap
     ethr =  7.16E-08,  avg # of iterations =  2.1

     total cpu time spent up to now is      243.3 secs

     total energy              =    -364.95591386 Ry
     Harris-Foulkes estimate   =    -364.95591435 Ry
     estimated scf accuracy    <       0.00000187 Ry

     iteration # 11     ecut=    80.00 Ry     beta= 0.70
     Davidson diagonalization with overlap
     ethr =  4.25E-09,  avg # of iterations =  3.7

     total cpu time spent up to now is      267.4 secs

     total energy              =    -364.95591463 Ry
     Harris-Foulkes estimate   =    -364.95591464 Ry
     estimated scf accuracy    <       0.00000005 Ry

     iteration # 12     ecut=    80.00 Ry     beta= 0.70
     Davidson diagonalization with overlap
     ethr =  1.10E-10,  avg # of iterations =  3.9

     total cpu time spent up to now is      291.6 secs

     total energy              =    -364.95591464 Ry
     Harris-Foulkes estimate   =    -364.95591465 Ry
     estimated scf accuracy    <       0.00000001 Ry

     iteration # 13     ecut=    80.00 Ry     beta= 0.70
     Davidson diagonalization with overlap
     ethr =  3.39E-11,  avg # of iterations =  3.0

     total cpu time spent up to now is      313.7 secs

     End of self-consistent calculation

          k = 0.0500 0.0500 0.0500 (  5047 PWs)   bands (ev):

   -46.1185 -22.4311 -22.3617 -22.3616  -7.2239  -6.2327  -6.1449  -5.0498
    -5.0369  -5.0366  -4.8989  -4.8875   4.4696   6.8190   6.8547   6.9912
     8.8555   8.8803   9.1711   9.3122   9.5263   9.5355  12.4730  12.8259
    12.8296  14.6529

          k = 0.0500 0.0500 0.1500 (  5074 PWs)   bands (ev):

   -46.1183 -22.4307 -22.3723 -22.3613  -7.1416  -6.1992  -6.1147  -5.0575
    -5.0446  -5.0362  -4.9299  -4.8855   4.1732   6.8716   6.9306   7.1729
     8.6350   8.7894   9.1394   9.2005   9.3771   9.5244  12.7898  12.8363
    12.9750  14.8104

          k = 0.0500 0.0500 0.2500 (  5093 PWs)   bands (ev):

   -46.1179 -22.4300 -22.3895 -22.3606  -7.0041  -6.1405  -6.0664  -5.0708
    -5.0570  -5.0353  -4.9864  -4.8801   3.8051   6.8731   7.0479   7.1847
     8.4651   8.5495   9.0643   9.1366   9.3317   9.5937  12.8335  13.2598
    13.3384  14.8129

          k = 0.0500 0.0500 0.3500 (  5090 PWs)   bands (ev):

   -46.1176 -22.4294 -22.4065 -22.3600  -6.8605  -6.0729  -6.0208  -5.0916
    -5.0696  -5.0409  -5.0344  -4.8766   3.5176   6.5131   7.2259   7.3435
     8.1697   8.2704   9.0011   9.1052   9.4494   9.9622  12.8348  13.6833
    13.7477  14.2816

          k = 0.0500 0.0500 0.4500 (  5073 PWs)   bands (ev):

   -46.1174 -22.4290 -22.4171 -22.3596  -6.7681  -6.0203  -5.9997  -5.1202
    -5.0784  -5.0618  -5.0339  -4.8757   3.3687   6.2222   7.4086   7.5943
     7.8887   7.9623   8.9596   9.1253   9.5024  10.4043  12.8262  13.5614
    13.9341  14.0184

          k = 0.0500 0.1500 0.1500 (  5079 PWs)   bands (ev):

   -46.1181 -22.4415 -22.3719 -22.3609  -7.0505  -6.1758  -6.0875  -5.0587
    -5.0541  -5.0431  -4.9225  -4.9049   3.9527   6.8258   6.9364   7.3433
     8.3817   8.6109   8.9865   9.2476   9.3341   9.5920  12.7940  13.1007
    13.2088  14.9495

          k = 0.0500 0.1500 0.2500 (  5077 PWs)   bands (ev):

   -46.1177 -22.4408 -22.3890 -22.3602  -6.9179  -6.1246  -6.0456  -5.0763
    -5.0621  -5.0425  -4.9534  -4.8964   3.6578   6.7813   7.0507   7.2769
     8.1897   8.4211   8.8522   9.1278   9.2968   9.7558  13.0936  13.2645
    13.5101  15.0141

          k = 0.0500 0.1500 0.3500 (  5080 PWs)   bands (ev):

   -46.1174 -22.4401 -22.4060 -22.3596  -6.7819  -6.0728  -5.9987  -5.0963
    -5.0702  -5.0421  -4.9812  -4.8925   3.4111   6.4999   7.1483   7.3333
     7.9326   8.2377   8.8021   9.1403   9.2805  10.0098  13.0926  13.6795
    13.8677  14.4443

          k = 0.0500 0.1500 0.4500 (  5079 PWs)   bands (ev):

   -46.1172 -22.4397 -22.4165 -22.3592  -6.6964  -6.0404  -5.9665  -5.1121
    -5.0779  -5.0418  -4.9906  -4.8944   3.2786   6.2271   7.2587   7.4905
     7.7703   7.9657   8.8500   9.1974   9.2534  10.2137  13.0769  13.9216
    13.9611  14.1120

          k = 0.0500 0.2500 0.2500 (  5076 PWs)   bands (ev):

   -46.1174 -22.4582 -22.3883 -22.3596  -6.7785  -6.1016  -6.0017  -5.0812
    -5.0653  -5.0500  -4.9282  -4.9108   3.4350   6.6650   7.0574   7.1927
     7.9735   8.1227   8.6267   9.0659   9.4853   9.8900  13.2431  13.5111
    13.7893  14.9982

          k = 0.0500 0.2500 0.3500 (  5080 PWs)   bands (ev):

   -46.1170 -22.4575 -22.4052 -22.3589  -6.6654  -6.0671  -5.9445  -5.0907
    -5.0694  -5.0514  -4.9392  -4.8897   3.2424   6.4718   6.9297   7.2682
     7.7552   8.0869   8.5087   8.9184   9.5961   9.9078  13.4862  13.6735
    14.0607  14.7278

          k = 0.0500 0.2500 0.4500 (  5084 PWs)   bands (ev):

   -46.1168 -22.4570 -22.4157 -22.3585  -6.6010  -6.0422  -5.9019  -5.0981
    -5.0763  -5.0527  -4.9324  -4.8863   3.1335   6.2287   6.9621   7.2524
     7.6868   8.0719   8.4403   8.9220   9.6075   9.8921  13.4832  13.9113
    14.2580  14.5459

          k = 0.0500 0.3500 0.3500 (  5079 PWs)   bands (ev):

   -46.1167 -22.4747 -22.4044 -22.3583  -6.5739  -6.0238  -5.8853  -5.0891
    -5.0721  -5.0541  -4.9612  -4.8326   3.0797   6.3163   6.6461   7.2772
     7.6566   7.9505   8.3963   8.8213   9.5786   9.9427  13.6435  13.8923
    14.2623  15.0238

          k = 0.0500 0.3500 0.4500 (  5079 PWs)   bands (ev):

   -46.1165 -22.4742 -22.4148 -22.3579  -6.5449  -5.9871  -5.8308  -5.0907
    -5.0750  -5.0576  -4.9695  -4.7986   2.9905   6.1771   6.5245   7.3127
     7.5132   8.1169   8.2873   8.7171   9.3763  10.0318  13.8725  13.9024
    14.4264  15.0980

          k = 0.0500 0.4500 0.4500 (  5100 PWs)   bands (ev):

   -46.1163 -22.4848 -22.4143 -22.3574  -6.5313  -5.9231  -5.7830  -5.0926
    -5.0741  -5.0583  -4.9934  -4.7480   2.9035   6.0095   6.3940   7.3310
     7.4419   8.0918   8.3283   8.6206   9.0622  10.2082  13.8767  14.1286
    14.5450  15.4402

          k = 0.1500 0.1500 0.1500 (  5095 PWs)   bands (ev):

   -46.1179 -22.4411 -22.3716 -22.3713  -6.9730  -6.1519  -6.0640  -5.0672
    -5.0604  -5.0421  -4.9175  -4.9074   3.8036   6.8068   6.8451   7.4589
     8.2228   8.3395   8.9886   9.3060   9.4075   9.4757  13.0224  13.1962
    13.2202  15.4491

          k = 0.1500 0.1500 0.2500 (  5084 PWs)   bands (ev):

   -46.1175 -22.4404 -22.3886 -22.3708  -6.8473  -6.1120  -6.0232  -5.0830
    -5.0609  -5.0381  -4.9343  -4.8966   3.5778   6.7446   6.8421   7.3079
     7.9843   8.1401   8.9777   9.2300   9.4003   9.6557  13.1641  13.3955
    13.5044  15.1480

          k = 0.1500 0.1500 0.3500 (  5082 PWs)   bands (ev):

   -46.1172 -22.4397 -22.4056 -22.3701  -6.7226  -6.0705  -5.9772  -5.0964
    -5.0540  -5.0309  -4.9579  -4.8924   3.3732   6.5004   6.8450   7.1905
     7.7706   8.1975   8.7024   9.2980   9.4147   9.8733  13.1045  13.7359
    13.8555  14.6396

          k = 0.1500 0.1500 0.4500 (  5084 PWs)   bands (ev):

   -46.1170 -22.4393 -22.4161 -22.3697  -6.6471  -6.0443  -5.9446  -5.1020
    -5.0490  -5.0222  -4.9749  -4.8957   3.2583   6.2335   6.8397   7.2435
     7.6706   8.3112   8.4589   9.3611   9.4039   9.9848  13.0411  13.9579
    14.0933  14.3981

          k = 0.1500 0.2500 0.2500 (  5081 PWs)   bands (ev):

   -46.1172 -22.4578 -22.3878 -22.3701  -6.7055  -6.0937  -6.0044  -5.0851
    -5.0693  -5.0247  -4.9087  -4.8934   3.4272   6.6084   6.7226   7.1306
     7.6726   7.9458   8.9390   9.2381   9.5239   9.7344  13.2864  13.5341
    13.7395  14.9420

          k = 0.1500 0.2500 0.3500 (  5080 PWs)   bands (ev):

   -46.1168 -22.4570 -22.4048 -22.3695  -6.5961  -6.0785  -5.9536  -5.0883
    -5.0595  -5.0128  -4.9122  -4.8742   3.2856   6.4495   6.6732   6.8889
     7.3933   7.9874   8.9075   9.1258   9.5933   9.7452  13.3720  13.7012
    13.9935  14.8991

          k = 0.1500 0.2500 0.4500 (  5077 PWs)   bands (ev):

   -46.1166 -22.4566 -22.4152 -22.3691  -6.5348  -6.0708  -5.9112  -5.0875
    -5.0508  -5.0075  -4.9070  -4.8727   3.1997   6.2291   6.6269   6.8348
     7.3154   8.0839   8.7084   9.2158   9.5225   9.7449  13.3628  13.9028
    14.1936  14.9427

          k = 0.1500 0.3500 0.3500 (  5081 PWs)   bands (ev):

   -46.1165 -22.4743 -22.4040 -22.3688  -6.4937  -6.0531  -5.9285  -5.0841
    -5.0518  -4.9929  -4.9194  -4.8172   3.1839   6.2835   6.5674   6.6576
     7.0761   7.9540   8.8151   9.1025   9.4030   9.9156  13.5532  13.8330
    14.1681  15.1967

          k = 0.1500 0.3500 0.4500 (  5079 PWs)   bands (ev):

   -46.1163 -22.4738 -22.4144 -22.3684  -6.4640  -6.0401  -5.8781  -5.0801
    -5.0346  -4.9933  -4.9233  -4.7833   3.1247   6.1665   6.4578   6.6202
     6.9065   8.0176   8.7248   9.0520   9.1886  10.0260  13.7429  13.8783
    14.3221  15.4359

          k = 0.1500 0.4500 0.4500 (  5073 PWs)   bands (ev):

   -46.1161 -22.4843 -22.4139 -22.3679  -6.4475  -5.9866  -5.8586  -5.0770
    -5.0137  -4.9775  -4.9483  -4.7314   3.0710   5.9936   6.3626   6.6319
     6.7360   8.0214   8.4857   8.9599   9.1164  10.1957  13.8503  14.0266
    14.4297  15.7700

          k = 0.2500 0.2500 0.2500 (  5070 PWs)   bands (ev):

   -46.1168 -22.4571 -22.3873 -22.3870  -6.5954  -6.0803  -5.9991  -5.0742
    -5.0709  -4.9935  -4.8847  -4.8674   3.3960   6.4330   6.4938   6.9966
     7.4303   7.4970   9.1107   9.4855   9.5062   9.6594  13.2969  13.7078
    13.7135  14.9628

          k = 0.2500 0.2500 0.3500 (  5072 PWs)   bands (ev):

   -46.1165 -22.4563 -22.4040 -22.3864  -6.5016  -6.0746  -5.9661  -5.0693
    -5.0547  -4.9564  -4.8674  -4.8492   3.3432   6.2832   6.3589   6.6493
     7.1751   7.4615   8.9264   9.4613   9.5536   9.7943  13.3547  13.7818
    13.9768  15.1668

          k = 0.2500 0.2500 0.4500 (  5073 PWs)   bands (ev):

   -46.1163 -22.4559 -22.4145 -22.3860  -6.4553  -6.0765  -5.9267  -5.0653
    -5.0430  -4.9192  -4.8660  -4.8438   3.3018   6.1740   6.2368   6.4612
     7.1197   7.5033   8.6854   9.4843   9.5243   9.8532  13.4383  13.8930
    14.1755  15.4281

          k = 0.2500 0.3500 0.3500 (  5057 PWs)   bands (ev):

   -46.1162 -22.4735 -22.4033 -22.3857  -6.3738  -6.0850  -5.9875  -5.0605
    -5.0362  -4.9142  -4.8445  -4.7878   3.3638   6.0584   6.1787   6.4400
     6.8281   7.3422   8.4704   9.5469   9.6930   9.9172  13.5171  13.9029
    14.1110  15.5012

          k = 0.2500 0.3500 0.4500 (  5063 PWs)   bands (ev):

   -46.1159 -22.4731 -22.4137 -22.3853  -6.3429  -6.1003  -5.9437  -5.0541
    -5.0203  -4.8843  -4.8360  -4.7540   3.3728   6.0231   6.0728   6.2252
     6.6650   7.3644   8.1080   9.5730   9.6823  10.0300  13.7340  13.9167
    14.2600  15.8512

          k = 0.2500 0.4500 0.4500 (  5070 PWs)   bands (ev):

   -46.1157 -22.4836 -22.4132 -22.3849  -6.3115  -6.0707  -5.9548  -5.0494
    -5.0021  -4.8616  -4.8197  -4.7000   3.4014   5.8722   6.0569   6.1076
     6.4520   7.3425   7.6506   9.5699   9.7249  10.1821  13.8993  14.0209
    14.3565  16.1906

          k = 0.3500 0.3500 0.3500 (  5055 PWs)   bands (ev):

   -46.1158 -22.4728 -22.4027 -22.4025  -6.2924  -6.0858  -6.0242  -5.0356
    -5.0257  -4.8396  -4.7752  -4.7518   3.5551   5.7912   5.8661   6.3054
     6.7795   6.8233   7.8251   9.8228   9.9054  10.0183  13.6804  14.0862
    14.0879  15.8764

          k = 0.3500 0.3500 0.4500 (  5056 PWs)   bands (ev):

   -46.1156 -22.4723 -22.4130 -22.4021  -6.2766  -6.0931  -6.0001  -5.0263
    -5.0139  -4.7858  -4.7504  -4.7189   3.6742   5.6667   5.7452   6.1214
     6.6167   6.8098   7.3355   9.8775   9.9805  10.1321  13.8989  14.0545
    14.2514  16.2621

          k = 0.3500 0.4500 0.4500 (  5051 PWs)   bands (ev):

   -46.1154 -22.4829 -22.4125 -22.4017  -6.1850  -6.1314  -6.0328  -5.0219
    -4.9985  -4.7541  -4.7043  -4.6617   3.8724   5.5266   5.6403   5.9723
     6.4270   6.7042   6.7847   9.9763  10.1127  10.1732  14.0669  14.1552
    14.3226  16.6307

          k = 0.4500 0.4500 0.4500 (  5034 PWs)   bands (ev):

   -46.1152 -22.4825 -22.4121 -22.4121  -6.1890  -6.0858  -6.0716  -5.0063
    -4.9952  -4.6905  -4.6393  -4.6335   4.3683   5.3403   5.4002   5.8763
     5.9486   6.4146   6.5040  10.1557  10.1677  10.2870  14.2373  14.3000
    14.3021  16.9893

          k =-0.0500 0.1500 0.0500 (  5074 PWs)   bands (ev):

   -46.1183 -22.4419 -22.3613 -22.3612  -7.1308  -6.2070  -6.1117  -5.0492
    -5.0459  -5.0433  -4.9225  -4.8944   4.1677   6.8648   6.8740   7.1816
     8.6479   8.6782   9.1532   9.1635   9.5374   9.5487  12.4748  13.0906
    13.1032  14.6545

          k =-0.0500 0.2500 0.0500 (  5093 PWs)   bands (ev):

   -46.1179 -22.4594 -22.3606 -22.3606  -6.9727  -6.1682  -6.0531  -5.0626
    -5.0534  -5.0482  -4.9818  -4.8890   3.7888   6.8383   6.9703   7.1287
     8.3699   8.4023   9.1134   9.2281   9.5932   9.6666  12.4775  13.4951
    13.5152  14.6575

          k =-0.0500 0.3500 0.0500 (  5090 PWs)   bands (ev):

   -46.1176 -22.4768 -22.3600 -22.3599  -6.8021  -6.1358  -5.9864  -5.0914
    -5.0620  -5.0473  -5.0371  -4.8858   3.4896   6.4545   7.0825   7.2071
     8.1157   8.1294   9.0512   9.4410   9.6443  10.0447  12.4792  13.8809
    13.9052  14.3432

          k =-0.0500 0.4500 0.0500 (  5073 PWs)   bands (ev):

   -46.1174 -22.4875 -22.3596 -22.3595  -6.6871  -6.1218  -5.9394  -5.1273
    -5.0667  -5.0588  -5.0468  -4.8851   3.3330   6.1429   7.1676   7.3330
     7.9278   7.9557   9.0108   9.5280   9.6789  10.4957  12.4774  13.6052
    14.1129  14.1416

          k = 0.1500 0.0500 0.1500 (  5079 PWs)   bands (ev):

   -46.1181 -22.4303 -22.3720 -22.3717  -7.0631  -6.1724  -6.0831  -5.0659
    -5.0450  -5.0425  -4.9296  -4.8994   3.9599   6.8221   6.9946   7.3270
     8.4475   8.5197   9.0590   9.1994   9.3680   9.5580  12.9421  12.9923
    13.0578  15.1225

          k =-0.0500 0.2500 0.1500 (  5077 PWs)   bands (ev):

   -46.1177 -22.4590 -22.3712 -22.3602  -6.8977  -6.1400  -6.0395  -5.0744
    -5.0567  -5.0505  -4.9485  -4.9042   3.6474   6.7395   7.0009   7.2671
     8.1039   8.3726   8.8539   9.2820   9.3809   9.7925  12.7933  13.5041
    13.5757  14.9803

          k = 0.2500 0.0500 0.1500 (  5077 PWs)   bands (ev):

   -46.1177 -22.4296 -22.3890 -22.3712  -6.9349  -6.1234  -6.0322  -5.0781
    -5.0538  -5.0426  -4.9596  -4.8980   3.6656   6.7984   7.0600   7.2758
     8.1796   8.3125   8.9117   9.2158   9.3909   9.6771  12.9643  13.3267
    13.4386  15.1546

          k =-0.0500 0.3500 0.1500 (  5080 PWs)   bands (ev):

   -46.1174 -22.4763 -22.3705 -22.3596  -6.7366  -6.1068  -5.9862  -5.0983
    -5.0587  -5.0542  -4.9788  -4.9007   3.3892   6.4213   7.0238   7.2834
     7.8793   8.1487   8.9207   9.2713   9.4377  10.0902  12.7862  13.8869
    13.9319  14.5195

          k = 0.3500 0.0500 0.1500 (  5080 PWs)   bands (ev):

   -46.1174 -22.4290 -22.4061 -22.3706  -6.8058  -6.0622  -5.9844  -5.0951
    -5.0593  -5.0421  -4.9957  -4.8943   3.4186   6.5132   7.0973   7.3708
     7.9011   8.2656   8.6606   9.2681   9.4251   9.9751  12.9488  13.7272
    13.8139  14.4885

          k =-0.0500 0.4500 0.1500 (  5079 PWs)   bands (ev):

   -46.1172 -22.4870 -22.3701 -22.3592  -6.6320  -6.0873  -5.9508  -5.1191
    -5.0636  -5.0544  -4.9893  -4.9029   3.2489   6.1283   7.0470   7.4017
     7.7394   7.9735   9.0167   9.2485   9.4757  10.3216  12.7728  13.9885
    14.1262  14.1863

          k = 0.4500 0.0500 0.1500 (  5079 PWs)   bands (ev):

   -46.1172 -22.4286 -22.4166 -22.3702  -6.7265  -6.0101  -5.9628  -5.1112
    -5.0637  -5.0418  -5.0117  -4.8951   3.2855   6.2307   7.2013   7.4753
     7.8168   8.0296   8.6306   9.2548   9.4660  10.2340  12.9165  13.9744
    13.9957  14.0563

          k = 0.2500 0.0500 0.2500 (  5076 PWs)   bands (ev):

   -46.1174 -22.4290 -22.3885 -22.3881  -6.8285  -6.0837  -5.9761  -5.0793
    -5.0564  -5.0480  -4.9302  -4.9249   3.4540   6.7499   7.0081   7.2595
     7.9124   7.9743   8.8893   9.0513   9.5954   9.7429  13.2533  13.3765
    13.7125  15.0899

          k =-0.0500 0.3500 0.2500 (  5080 PWs)   bands (ev):

   -46.1170 -22.4755 -22.3875 -22.3589  -6.6436  -6.0674  -5.9532  -5.0919
    -5.0668  -5.0545  -4.9407  -4.8914   3.2310   6.3783   6.9536   7.1990
     7.7825   8.0488   8.4830   9.0958   9.5522   9.9921  13.2333  13.8941
    14.0644  14.7935

          k = 0.3500 0.0500 0.2500 (  5080 PWs)   bands (ev):

   -46.1170 -22.4283 -22.4053 -22.3876  -6.7333  -6.0205  -5.9220  -5.0856
    -5.0587  -5.0498  -4.9441  -4.9119   3.2604   6.5183   6.9001   7.2712
     7.7102   7.9815   8.5869   9.1035   9.6352   9.8925  13.2812  13.7266
    13.9962  14.7775

          k =-0.0500 0.4500 0.2500 (  5084 PWs)   bands (ev):

   -46.1168 -22.4862 -22.3871 -22.3585  -6.5666  -6.0305  -5.9258  -5.1040
    -5.0659  -5.0613  -4.9381  -4.8853   3.1143   6.1018   6.9555   7.1732
     7.7483   7.9731   8.4787   9.1357   9.5239  10.0421  13.2226  14.1304
    14.2280  14.6653

          k = 0.4500 0.0500 0.2500 (  5084 PWs)   bands (ev):

   -46.1168 -22.4279 -22.4157 -22.3871  -6.6822  -5.9593  -5.8967  -5.0948
    -5.0616  -5.0529  -4.9365  -4.9146   3.1501   6.2393   6.9798   7.1570
     7.7484   8.0694   8.3065   9.1779   9.5715  10.0038  13.2636  13.9871
    14.1845  14.5796

          k = 0.3500 0.0500 0.3500 (  5079 PWs)   bands (ev):

   -46.1167 -22.4277 -22.4046 -22.4044  -6.6840  -5.9416  -5.8578  -5.0807
    -5.0635  -5.0490  -4.9629  -4.8671   3.1068   6.4624   6.5950   7.2538
     7.4647   7.9730   8.5852   8.8490   9.5891  10.0013  13.6390  13.7613
    14.1962  15.0266

          k =-0.0500 0.4500 0.3500 (  5079 PWs)   bands (ev):

   -46.1165 -22.4853 -22.4039 -22.3578  -6.5356  -5.9675  -5.8503  -5.0941
    -5.0722  -5.0592  -4.9723  -4.7978   2.9827   6.0647   6.6115   7.2153
     7.6509   7.9676   8.3113   8.8251   9.3626  10.0719  13.6376  14.1301
    14.4061  15.2060

          k = 0.4500 0.0500 0.3500 (  5079 PWs)   bands (ev):

   -46.1165 -22.4272 -22.4149 -22.4040  -6.6649  -5.8666  -5.8239  -5.0836
    -5.0621  -5.0560  -4.9737  -4.8367   3.0150   6.2097   6.6037   7.1491
     7.4331   8.1346   8.3665   8.8442   9.3959  10.1460  13.6855  13.9803
    14.3389  15.1240

          k = 0.4500 0.0500 0.4500 (  5100 PWs)   bands (ev):

   -46.1163 -22.4268 -22.4144 -22.4144  -6.6648  -5.7896  -5.7765  -5.0827
    -5.0603  -5.0562  -5.0004  -4.7900   2.9322   6.0936   6.4654   7.1968
     7.2209   8.2755   8.4218   8.5993   9.1393  10.3160  13.9621  13.9840
    14.4418  15.3832

          k =-0.1500 0.2500 0.1500 (  5084 PWs)   bands (ev):

   -46.1175 -22.4585 -22.3709 -22.3707  -6.8230  -6.1192  -6.0320  -5.0822
    -5.0659  -5.0372  -4.9244  -4.9048   3.5662   6.7281   6.7689   7.3166
     7.9899   8.1555   8.8090   9.3669   9.4692   9.6758  12.9963  13.5368
    13.5798  15.1660

          k =-0.1500 0.3500 0.1500 (  5082 PWs)   bands (ev):

   -46.1172 -22.4759 -22.3702 -22.3700  -6.6674  -6.0868  -5.9985  -5.1004
    -5.0620  -5.0249  -4.9465  -4.9011   3.3498   6.4230   6.7137   7.2154
     7.8381   8.1559   8.6195   9.3847   9.5177   9.9410  12.9348  13.8897
    13.9120  14.6761

          k =-0.1500 0.4500 0.1500 (  5084 PWs)   bands (ev):

   -46.1170 -22.4865 -22.3697 -22.3696  -6.5684  -6.0666  -5.9770  -5.1096
    -5.0595  -5.0104  -4.9630  -4.9057   3.2272   6.1322   6.6711   7.2688
     7.7716   8.1365   8.5564   9.3825   9.5467  10.0723  12.8771  14.1147
    14.1215  14.4547

          k = 0.2500 0.1500 0.2500 (  5081 PWs)   bands (ev):

   -46.1172 -22.4397 -22.3880 -22.3877  -6.7395  -6.0838  -5.9848  -5.0819
    -5.0669  -5.0236  -4.9114  -4.8993   3.4397   6.6435   6.7533   7.1213
     7.6279   7.9253   9.0798   9.2248   9.5716   9.6152  13.3223  13.4844
    13.6719  14.9500

          k =-0.1500 0.3500 0.2500 (  5080 PWs)   bands (ev):

   -46.1168 -22.4751 -22.3871 -22.3694  -6.5680  -6.0667  -5.9843  -5.0911
    -5.0643  -5.0046  -4.9120  -4.8766   3.2731   6.3681   6.5976   6.9140
     7.5252   7.9566   8.7028   9.3417   9.5789   9.7938  13.2233  13.8505
    13.9973  14.9231

          k = 0.3500 0.1500 0.2500 (  5080 PWs)   bands (ev):

   -46.1168 -22.4391 -22.4048 -22.3871  -6.6441  -6.0428  -5.9416  -5.0842
    -5.0593  -5.0041  -4.9117  -4.8929   3.2978   6.4819   6.6576   6.8656
     7.4341   7.9263   8.8952   9.2619   9.5370   9.7869  13.2916  13.7371
    13.9443  14.9061

          k =-0.1500 0.4500 0.2500 (  5077 PWs)   bands (ev):

   -46.1166 -22.4857 -22.3866 -22.3690  -6.4895  -6.0364  -5.9754  -5.0933
    -5.0593  -4.9870  -4.9179  -4.8706   3.1789   6.1085   6.4915   6.9056
     7.5026   8.0365   8.5197   9.4022   9.5258   9.8153  13.1966  14.0750
    14.1873  15.0051

          k = 0.4500 0.1500 0.2500 (  5077 PWs)   bands (ev):

   -46.1166 -22.4386 -22.4153 -22.3867  -6.5939  -6.0113  -5.9095  -5.0841
    -5.0525  -4.9878  -4.9106  -4.8976   3.2113   6.2377   6.5845   6.8378
     7.3949   7.9929   8.7076   9.3218   9.4478   9.8589  13.2661  13.9483
    14.1483  14.9517

          k = 0.3500 0.1500 0.3500 (  5081 PWs)   bands (ev):

   -46.1165 -22.4384 -22.4042 -22.4039  -6.5928  -5.9815  -5.9037  -5.0756
    -5.0513  -4.9833  -4.9123  -4.8516   3.2080   6.4423   6.4729   6.6463
     7.0482   7.9024   8.9326   9.1219   9.3317  10.0042  13.5439  13.7753
    14.1165  15.1879

          k =-0.1500 0.4500 0.3500 (  5079 PWs)   bands (ev):

   -46.1163 -22.4849 -22.4035 -22.3683  -6.4516  -6.0068  -5.9175  -5.0824
    -5.0420  -4.9728  -4.9366  -4.7820   3.1160   6.0507   6.5258   6.5528
     7.0348   7.9842   8.6185   9.1107   9.2551  10.0374  13.5874  14.0418
    14.3126  15.4871

          k = 0.4500 0.1500 0.3500 (  5079 PWs)   bands (ev):

   -46.1163 -22.4379 -22.4145 -22.4036  -6.5748  -5.9316  -5.8748  -5.0721
    -5.0389  -4.9700  -4.9228  -4.8221   3.1473   6.2031   6.4877   6.5476
     6.9375   7.9403   8.7658   9.1047   9.1931  10.1361  13.6347  13.9269
    14.2659  15.4420

          k = 0.4500 0.1500 0.4500 (  5073 PWs)   bands (ev):

   -46.1161 -22.4375 -22.4140 -22.4139  -6.5761  -5.8648  -5.8529  -5.0672
    -5.0168  -4.9574  -4.9441  -4.7751   3.1000   6.0842   6.4276   6.5646
     6.6428   7.9601   8.5632   9.0574   9.0696  10.3105  13.8965  13.9363
    14.3703  15.7517

          k =-0.2500 0.3500 0.2500 (  5072 PWs)   bands (ev):

   -46.1165 -22.4743 -22.3865 -22.3863  -6.4569  -6.0665  -6.0136  -5.0747
    -5.0553  -4.9549  -4.8686  -4.8420   3.3288   6.2096   6.3464   6.6382
     7.3479   7.3814   8.8321   9.5204   9.6206   9.7429  13.2993  13.8601
    13.9874  15.1741

          k =-0.2500 0.4500 0.2500 (  5073 PWs)   bands (ev):

   -46.1163 -22.4849 -22.3861 -22.3859  -6.3804  -6.0462  -6.0226  -5.0727
    -5.0454  -4.9120  -4.8766  -4.8285   3.2777   6.0751   6.1239   6.5568
     7.3213   7.4117   8.5912   9.4811   9.6514   9.7967  13.3489  14.0169
    14.1868  15.4616

          k = 0.3500 0.2500 0.3500 (  5057 PWs)   bands (ev):

   -46.1162 -22.4556 -22.4034 -22.4032  -6.4430  -6.0381  -5.9681  -5.0520
    -5.0417  -4.9040  -4.8298  -4.8189   3.3797   6.1160   6.1347   6.4492
     6.8638   7.2742   8.4957   9.5782   9.6065  10.0097  13.5168  13.8824
    14.0849  15.4965

          k =-0.2500 0.4500 0.3500 (  5063 PWs)   bands (ev):

   -46.1159 -22.4841 -22.4028 -22.3853  -6.3180  -6.0618  -6.0029  -5.0565
    -5.0218  -4.8784  -4.8405  -4.7508   3.3617   5.8917   6.1220   6.2366
     6.7638   7.3300   8.0987   9.5423   9.7282  10.0215  13.6489  14.0179
    14.2594  15.8632

          k = 0.4500 0.2500 0.3500 (  5063 PWs)   bands (ev):

   -46.1159 -22.4552 -22.4137 -22.4029  -6.4267  -6.0197  -5.9424  -5.0465
    -5.0269  -4.8594  -4.8296  -4.7897   3.3891   5.9812   6.1208   6.1982
     6.7520   7.2733   8.1335   9.5978   9.6211  10.1308  13.6970  13.9340
    14.2345  15.8474

          k = 0.4500 0.2500 0.4500 (  5070 PWs)   bands (ev):

   -46.1157 -22.4548 -22.4132 -22.4132  -6.4307  -5.9611  -5.9500  -5.0398
    -5.0102  -4.8256  -4.8153  -4.7462   3.4299   5.9573   5.9856   6.0792
     6.5047   7.2520   7.7031   9.6315   9.6340  10.3015  13.9221  13.9784
    14.3222  16.1765

          k =-0.3500 0.4500 0.3500 (  5056 PWs)   bands (ev):

   -46.1156 -22.4834 -22.4022 -22.4021  -6.2056  -6.1053  -6.0557  -5.0324
    -5.0092  -4.8017  -4.7454  -4.7057   3.6576   5.5987   5.8474   6.0624
     6.6444   6.8144   7.3310   9.9110  10.0062  10.0506  13.8579  14.1097
    14.2577  16.2632

          k = 0.4500 0.3500 0.4500 (  5051 PWs)   bands (ev):

   -46.1154 -22.4719 -22.4125 -22.4125  -6.2830  -6.0403  -6.0288  -5.0123
    -5.0076  -4.7230  -4.6998  -4.6987   3.8963   5.5525   5.5642   5.9992
     6.5024   6.6624   6.7617   9.9967  10.0042  10.2926  14.0838  14.1435
    14.3000  16.6266

     the Fermi energy is    10.4083 ev

!    total energy              =    -364.95591465 Ry
     Harris-Foulkes estimate   =    -364.95591465 Ry
     estimated scf accuracy    <          1.8E-09 Ry

     The total energy is the sum of the following terms:

     one-electron contribution =     -83.34270949 Ry
     hartree contribution      =      71.06629166 Ry
     xc contribution           =     -85.82208800 Ry
     ewald contribution        =    -266.86354772 Ry
     smearing contrib. (-TS)   =       0.00613890 Ry

     convergence has been achieved in  13 iterations

     Forces acting on atoms (cartesian axes, Ry/au):

     atom    1 type  1   force =     0.00000000    0.01539698    0.00000000
     atom    2 type  2   force =     0.00000000   -0.02281958    0.00000000
     atom    3 type  3   force =     0.00000000    0.00211269    0.00000000
     atom    4 type  3   force =     0.00000000    0.00319722    0.00000000
     atom    5 type  3   force =     0.00000000    0.00211269    0.00000000

     Total force =     0.004376     Total SCF correction =     0.000024


     Computing stress (Cartesian axis) and pressure

          total   stress  (Ry/bohr**3)                   (kbar)     P=   12.26
   0.00001572   0.00000000   0.00000000          2.31      0.00      0.00
   0.00000000   0.00021863   0.00000000          0.00     32.16      0.00
   0.00000000   0.00000000   0.00001572          0.00      0.00      2.31


     BFGS Geometry Optimization

     number of scf cycles    =   1
     number of bfgs steps    =   0

     energy   new            =    -364.9559146477 Ry

     new trust radius        =       0.0031972200 bohr
     new conv_thr            =       0.0000000100 Ry


ATOMIC_POSITIONS (crystal)
Pb       0.000000000   0.000000000   0.000000000    0   0   0
Ti       0.500000000   0.540000000   0.500000000    0   0   0
O        0.500000000   0.500282068   0.000000000
O        0.500000000   0.000426865   0.500000000
O        0.000000000   0.500282068   0.500000000



     Writing output data file PbTiO3.save/
     NEW-OLD atomic charge density approx. for the potential

     Check: negative core charge=   -0.000006

     total cpu time spent up to now is      331.1 secs

     Self-consistent Calculation

     iteration #  1     ecut=    80.00 Ry     beta= 0.70
     Davidson diagonalization with overlap
     ethr =  1.00E-06,  avg # of iterations =  2.2

     Threshold (ethr) on eigenvalues was too large:
     Diagonalizing with lowered threshold

     Davidson diagonalization with overlap
     ethr =  5.58E-09,  avg # of iterations =  3.4

     total cpu time spent up to now is      374.8 secs

     total energy              =    -364.95593226 Ry
     Harris-Foulkes estimate   =    -364.95593384 Ry
     estimated scf accuracy    <       0.00000262 Ry

     iteration #  2     ecut=    80.00 Ry     beta= 0.70
     Davidson diagonalization with overlap
     ethr =  5.95E-09,  avg # of iterations =  3.8

     total cpu time spent up to now is      398.0 secs

     total energy              =    -364.95593174 Ry
     Harris-Foulkes estimate   =    -364.95593390 Ry
     estimated scf accuracy    <       0.00000499 Ry

     iteration #  3     ecut=    80.00 Ry     beta= 0.70
     Davidson diagonalization with overlap
     ethr =  5.95E-09,  avg # of iterations =  3.1

     total cpu time spent up to now is      420.3 secs

     total energy              =    -364.95593287 Ry
     Harris-Foulkes estimate   =    -364.95593320 Ry
     estimated scf accuracy    <       0.00000105 Ry

     iteration #  4     ecut=    80.00 Ry     beta= 0.70
     Davidson diagonalization with overlap
     ethr =  2.40E-09,  avg # of iterations =  2.7

     total cpu time spent up to now is      440.6 secs

     total energy              =    -364.95593301 Ry
     Harris-Foulkes estimate   =    -364.95593303 Ry
     estimated scf accuracy    <       0.00000002 Ry

     iteration #  5     ecut=    80.00 Ry     beta= 0.70
     Davidson diagonalization with overlap
     ethr =  5.61E-11,  avg # of iterations =  3.9

     total cpu time spent up to now is      465.4 secs

     total energy              =    -364.95593302 Ry
     Harris-Foulkes estimate   =    -364.95593303 Ry
     estimated scf accuracy    <       0.00000002 Ry

     iteration #  6     ecut=    80.00 Ry     beta= 0.70
     Davidson diagonalization with overlap
     ethr =  5.10E-11,  avg # of iterations =  2.9

     total cpu time spent up to now is      486.4 secs

     End of self-consistent calculation

          k = 0.0500 0.0500 0.0500 (  5047 PWs)   bands (ev):

   -46.1217 -22.4325 -22.3648 -22.3648  -7.2240  -6.2322  -6.1459  -5.0490
    -5.0364  -5.0361  -4.8983  -4.8872   4.4701   6.8191   6.8542   6.9907
     8.8603   8.8852   9.1712   9.3149   9.5258   9.5366  12.4705  12.8181
    12.8217  14.6494

          k = 0.0500 0.0500 0.1500 (  5074 PWs)   bands (ev):

   -46.1215 -22.4321 -22.3755 -22.3644  -7.1416  -6.1987  -6.1157  -5.0568
    -5.0441  -5.0357  -4.9293  -4.8851   4.1737   6.8716   6.9297   7.1726
     8.6394   8.7922   9.1407   9.2025   9.3768   9.5255  12.7869  12.8290
    12.9696  14.8045

          k = 0.0500 0.0500 0.2500 (  5093 PWs)   bands (ev):

   -46.1211 -22.4315 -22.3926 -22.3638  -7.0040  -6.1401  -6.0673  -5.0701
    -5.0564  -5.0348  -4.9858  -4.8796   3.8056   6.8724   7.0476   7.1842
     8.4668   8.5505   9.0659   9.1388   9.3335   9.5947  12.8255  13.2577
    13.3347  14.8068

          k = 0.0500 0.0500 0.3500 (  5090 PWs)   bands (ev):

   -46.1208 -22.4309 -22.4097 -22.3632  -6.8602  -6.0728  -6.0217  -5.0910
    -5.0690  -5.0403  -5.0339  -4.8761   3.5182   6.5119   7.2256   7.3428
     8.1699   8.2699   9.0025   9.1097   9.4518   9.9630  12.8268  13.6814
    13.7446  14.2824

          k = 0.0500 0.0500 0.4500 (  5073 PWs)   bands (ev):

   -46.1206 -22.4304 -22.4202 -22.3628  -6.7676  -6.0204  -6.0003  -5.1196
    -5.0777  -5.0612  -5.0334  -4.8752   3.3693   6.2205   7.4083   7.5935
     7.8887   7.9612   8.9607   9.1309   9.5048  10.4052  12.8184  13.5620
    13.9322  14.0150

          k = 0.0500 0.1500 0.1500 (  5079 PWs)   bands (ev):

   -46.1213 -22.4430 -22.3751 -22.3640  -7.0507  -6.1752  -6.0886  -5.0581
    -5.0535  -5.0425  -4.9220  -4.9044   3.9533   6.8257   6.9366   7.3428
     8.3847   8.6137   8.9885   9.2486   9.3339   9.5916  12.7917  13.0937
    13.2036  14.9454

          k = 0.0500 0.1500 0.2500 (  5077 PWs)   bands (ev):

   -46.1209 -22.4423 -22.3922 -22.3634  -6.9179  -6.1241  -6.0465  -5.0757
    -5.0615  -5.0420  -4.9529  -4.8960   3.6584   6.7811   7.0506   7.2763
     8.1906   8.4226   8.8533   9.1301   9.2979   9.7557  13.0867  13.2622
    13.5064  15.0105

          k = 0.0500 0.1500 0.3500 (  5080 PWs)   bands (ev):

   -46.1206 -22.4416 -22.4092 -22.3628  -6.7818  -6.0725  -5.9995  -5.0957
    -5.0695  -5.0416  -4.9807  -4.8920   3.4117   6.4989   7.1479   7.3330
     7.9326   8.2379   8.8035   9.1438   9.2816  10.0103  13.0854  13.6777
    13.8645  14.4449

          k = 0.0500 0.1500 0.4500 (  5079 PWs)   bands (ev):

   -46.1204 -22.4412 -22.4197 -22.3624  -6.6962  -6.0401  -5.9672  -5.1115
    -5.0772  -5.0412  -4.9901  -4.8940   3.2791   6.2256   7.2583   7.4900
     7.7706   7.9653   8.8522   9.2005   9.2545  10.2145  13.0699  13.9202
    13.9614  14.1087

          k = 0.0500 0.2500 0.2500 (  5076 PWs)   bands (ev):

   -46.1206 -22.4597 -22.3914 -22.3627  -6.7788  -6.1009  -6.0026  -5.0806
    -5.0646  -5.0495  -4.9277  -4.9105   3.4357   6.6659   7.0567   7.1926
     7.9743   8.1233   8.6282   9.0658   9.4870   9.8892  13.2411  13.5050
    13.7858  14.9973

          k = 0.0500 0.2500 0.3500 (  5080 PWs)   bands (ev):

   -46.1202 -22.4589 -22.4084 -22.3621  -6.6657  -6.0664  -5.9453  -5.0901
    -5.0687  -5.0509  -4.9387  -4.8894   3.2431   6.4715   6.9288   7.2684
     7.7559   8.0869   8.5088   8.9203   9.5979   9.9075  13.4803  13.6716
    14.0577  14.7279

          k = 0.0500 0.2500 0.4500 (  5084 PWs)   bands (ev):

   -46.1200 -22.4584 -22.4189 -22.3617  -6.6013  -6.0413  -5.9026  -5.0975
    -5.0756  -5.0522  -4.9320  -4.8860   3.1341   6.2274   6.9619   7.2519
     7.6884   8.0711   8.4399   8.9246   9.6087   9.8928  13.4770  13.9098
    14.2550  14.5463

          k = 0.0500 0.3500 0.3500 (  5079 PWs)   bands (ev):

   -46.1199 -22.4762 -22.4076 -22.3614  -6.5746  -6.0225  -5.8861  -5.0885
    -5.0714  -5.0535  -4.9606  -4.8323   3.0804   6.3179   6.6438   7.2782
     7.6563   7.9507   8.3968   8.8211   9.5803   9.9426  13.6419  13.8868
    14.2597  15.0231

          k = 0.0500 0.3500 0.4500 (  5079 PWs)   bands (ev):

   -46.1197 -22.4756 -22.4180 -22.3610  -6.5457  -5.9856  -5.8316  -5.0901
    -5.0742  -5.0571  -4.9690  -4.7983   2.9910   6.1769   6.5237   7.3122
     7.5146   8.1164   8.2868   8.7180   9.3775  10.0327  13.8685  13.8996
    14.4237  15.0980

          k = 0.0500 0.4500 0.4500 (  5100 PWs)   bands (ev):

   -46.1195 -22.4862 -22.4175 -22.3606  -6.5323  -5.9214  -5.7839  -5.0919
    -5.0733  -5.0578  -4.9928  -4.7477   2.9041   6.0104   6.3924   7.3319
     7.4410   8.0931   8.3273   8.6201   9.0636  10.2092  13.8757  14.1233
    14.5426  15.4386

          k = 0.1500 0.1500 0.1500 (  5095 PWs)   bands (ev):

   -46.1211 -22.4426 -22.3748 -22.3745  -6.9731  -6.1513  -6.0650  -5.0665
    -5.0598  -5.0416  -4.9169  -4.9070   3.8042   6.8072   6.8447   7.4586
     8.2250   8.3404   8.9929   9.3065   9.4063   9.4753  13.0203  13.1913
    13.2147  15.4457

          k = 0.1500 0.1500 0.2500 (  5084 PWs)   bands (ev):

   -46.1207 -22.4419 -22.3917 -22.3740  -6.8472  -6.1116  -6.0241  -5.0824
    -5.0604  -5.0375  -4.9337  -4.8962   3.5782   6.7446   6.8421   7.3077
     7.9854   8.1404   8.9795   9.2312   9.4011   9.6550  13.1593  13.3933
    13.5006  15.1484

          k = 0.1500 0.1500 0.3500 (  5082 PWs)   bands (ev):

   -46.1204 -22.4412 -22.4087 -22.3733  -6.7222  -6.0704  -5.9781  -5.0958
    -5.0535  -5.0303  -4.9573  -4.8920   3.3737   6.4995   6.8450   7.1904
     7.7710   8.1981   8.7023   9.3003   9.4156   9.8732  13.0996  13.7343
    13.8523  14.6398

          k = 0.1500 0.1500 0.4500 (  5084 PWs)   bands (ev):

   -46.1202 -22.4408 -22.4192 -22.3729  -6.6465  -6.0443  -5.9454  -5.1014
    -5.0485  -5.0215  -4.9743  -4.8953   3.2587   6.2319   6.8396   7.2438
     7.6707   8.3117   8.4591   9.3629   9.4049   9.9851  13.0365  13.9565
    14.0901  14.3982

          k = 0.1500 0.2500 0.2500 (  5081 PWs)   bands (ev):

   -46.1204 -22.4592 -22.3910 -22.3733  -6.7057  -6.0930  -6.0053  -5.0845
    -5.0687  -5.0241  -4.9081  -4.8930   3.4279   6.6093   6.7232   7.1298
     7.6725   7.9452   8.9428   9.2367   9.5253   9.7332  13.2847  13.5295
    13.7358  14.9418

          k = 0.1500 0.2500 0.3500 (  5080 PWs)   bands (ev):

   -46.1200 -22.4585 -22.4080 -22.3726  -6.5961  -6.0779  -5.9544  -5.0876
    -5.0589  -5.0122  -4.9117  -4.8739   3.2861   6.4494   6.6734   6.8881
     7.3941   7.9864   8.9073   9.1281   9.5948   9.7446  13.3682  13.6992
    13.9903  14.8987

          k = 0.1500 0.2500 0.4500 (  5077 PWs)   bands (ev):

   -46.1198 -22.4580 -22.4184 -22.3722  -6.5348  -6.0702  -5.9120  -5.0869
    -5.0503  -5.0067  -4.9065  -4.8724   3.2003   6.2279   6.6265   6.8351
     7.3165   8.0828   8.7076   9.2182   9.5235   9.7454  13.3583  13.9016
    14.1905  14.9428

          k = 0.1500 0.3500 0.3500 (  5081 PWs)   bands (ev):

   -46.1197 -22.4757 -22.4072 -22.3720  -6.4943  -6.0520  -5.9292  -5.0835
    -5.0512  -4.9922  -4.9188  -4.8169   3.1845   6.2852   6.5663   6.6571
     7.0756   7.9529   8.8176   9.1020   9.4031   9.9164  13.5516  13.8288
    14.1652  15.1961

          k = 0.1500 0.3500 0.4500 (  5079 PWs)   bands (ev):

   -46.1195 -22.4752 -22.4176 -22.3715  -6.4646  -6.0388  -5.8788  -5.0795
    -5.0341  -4.9925  -4.9229  -4.7830   3.1252   6.1666   6.4574   6.6194
     6.9071   8.0161   8.7253   9.0536   9.1886  10.0271  13.7391  13.8765
    14.3193  15.4359

          k = 0.1500 0.4500 0.4500 (  5073 PWs)   bands (ev):

   -46.1193 -22.4858 -22.4171 -22.3711  -6.4484  -5.9850  -5.8593  -5.0763
    -5.0131  -4.9767  -4.9478  -4.7312   3.0716   5.9947   6.3613   6.6319
     6.7350   8.0200   8.4870   8.9617   9.1154  10.1969  13.8488  14.0223
    14.4273  15.7698

          k = 0.2500 0.2500 0.2500 (  5070 PWs)   bands (ev):

   -46.1200 -22.4585 -22.3905 -22.3901  -6.5952  -6.0799  -6.0000  -5.0735
    -5.0703  -4.9929  -4.8841  -4.8671   3.3966   6.4342   6.4938   6.9970
     7.4292   7.4954   9.1144   9.4845   9.5057   9.6598  13.2955  13.7044
    13.7098  14.9622

          k = 0.2500 0.2500 0.3500 (  5072 PWs)   bands (ev):

   -46.1197 -22.4578 -22.4072 -22.3896  -6.5011  -6.0744  -5.9668  -5.0687
    -5.0541  -4.9558  -4.8668  -4.8488   3.3436   6.2835   6.3596   6.6486
     7.1750   7.4596   8.9274   9.4625   9.5538   9.7943  13.3526  13.7793
    13.9737  15.1662

          k = 0.2500 0.2500 0.4500 (  5073 PWs)   bands (ev):

   -46.1195 -22.4573 -22.4176 -22.3892  -6.4545  -6.0765  -5.9274  -5.0647
    -5.0425  -4.9184  -4.8656  -4.8434   3.3021   6.1738   6.2360   6.4619
     7.1201   7.5014   8.6857   9.4851   9.5255   9.8531  13.4351  13.8917
    14.1725  15.4280

          k = 0.2500 0.3500 0.3500 (  5057 PWs)   bands (ev):

   -46.1194 -22.4750 -22.4065 -22.3889  -6.3740  -6.0842  -5.9882  -5.0599
    -5.0357  -4.9135  -4.8440  -4.7876   3.3644   6.0600   6.1786   6.4395
     6.8266   7.3402   8.4715   9.5484   9.6921   9.9183  13.5155  13.8996
    14.1080  15.5006

          k = 0.2500 0.3500 0.4500 (  5063 PWs)   bands (ev):

   -46.1191 -22.4745 -22.4169 -22.3885  -6.3430  -6.0994  -5.9443  -5.0534
    -5.0197  -4.8834  -4.8357  -4.7537   3.3733   6.0229   6.0742   6.2238
     6.6645   7.3622   8.1087   9.5749   9.6814  10.0312  13.7311  13.9147
    14.2572  15.8510

          k = 0.2500 0.4500 0.4500 (  5070 PWs)   bands (ev):

   -46.1189 -22.4851 -22.4164 -22.3880  -6.3122  -6.0692  -5.9554  -5.0487
    -5.0015  -4.8606  -4.8194  -4.6998   3.4019   5.8745   6.0559   6.1065
     6.4504   7.3406   7.6517   9.5718   9.7239  10.1835  13.8974  14.0175
    14.3540  16.1904

          k = 0.3500 0.3500 0.3500 (  5055 PWs)   bands (ev):

   -46.1190 -22.4743 -22.4058 -22.4057  -6.2918  -6.0856  -6.0248  -5.0349
    -5.0252  -4.8388  -4.7747  -4.7516   3.5555   5.7924   5.8658   6.3055
     6.7781   6.8208   7.8257   9.8244   9.9061  10.0179  13.6786  14.0833
    14.0850  15.8759

          k = 0.3500 0.3500 0.4500 (  5056 PWs)   bands (ev):

   -46.1188 -22.4738 -22.4161 -22.4053  -6.2755  -6.0934  -6.0007  -5.0257
    -5.0133  -4.7850  -4.7501  -4.7186   3.6745   5.6667   5.7463   6.1207
     6.6156   6.8076   7.3360   9.8791   9.9813  10.1315  13.8965  14.0522
    14.2488  16.2619

          k = 0.3500 0.4500 0.4500 (  5051 PWs)   bands (ev):

   -46.1186 -22.4844 -22.4157 -22.4049  -6.1850  -6.1305  -6.0333  -5.0212
    -4.9979  -4.7530  -4.7042  -4.6615   3.8729   5.5278   5.6394   5.9718
     6.4258   6.7044   6.7829   9.9780  10.1119  10.1745  14.0648  14.1524
    14.3200  16.6306

          k = 0.4500 0.4500 0.4500 (  5034 PWs)   bands (ev):

   -46.1184 -22.4839 -22.4153 -22.4152  -6.1876  -6.0864  -6.0722  -5.0056
    -4.9947  -4.6894  -4.6392  -4.6334   4.3684   5.3412   5.3998   5.8756
     5.9495   6.4136   6.5012  10.1572  10.1692  10.2861  14.2351  14.2974
    14.2996  16.9894

          k =-0.0500 0.1500 0.0500 (  5074 PWs)   bands (ev):

   -46.1215 -22.4434 -22.3644 -22.3644  -7.1311  -6.2063  -6.1127  -5.0485
    -5.0453  -5.0428  -4.9221  -4.8939   4.1683   6.8649   6.8744   7.1810
     8.6517   8.6823   9.1556   9.1638   9.5372   9.5481  12.4723  13.0837
    13.0961  14.6510

          k =-0.0500 0.2500 0.0500 (  5093 PWs)   bands (ev):

   -46.1211 -22.4609 -22.3638 -22.3638  -6.9732  -6.1673  -6.0542  -5.0620
    -5.0528  -5.0475  -4.9813  -4.8884   3.7898   6.8385   6.9714   7.1289
     8.3723   8.4053   9.1138   9.2286   9.5923   9.6662  12.4750  13.4891
    13.5090  14.6539

          k =-0.0500 0.3500 0.0500 (  5090 PWs)   bands (ev):

   -46.1208 -22.4783 -22.3631 -22.3631  -6.8029  -6.1346  -5.9876  -5.0907
    -5.0615  -5.0466  -5.0366  -4.8851   3.4909   6.4542   7.0847   7.2087
     8.1164   8.1307   9.0515   9.4404   9.6434  10.0444  12.4767  13.8756
    13.8996  14.3432

          k =-0.0500 0.4500 0.0500 (  5073 PWs)   bands (ev):

   -46.1206 -22.4890 -22.3627 -22.3627  -6.6883  -6.1203  -5.9407  -5.1266
    -5.0662  -5.0583  -5.0460  -4.8844   3.3346   6.1424   7.1710   7.3363
     7.9272   7.9548   9.0110   9.5271   9.6779  10.4952  12.4750  13.6053
    14.1080  14.1363

          k = 0.1500 0.0500 0.1500 (  5079 PWs)   bands (ev):

   -46.1213 -22.4317 -22.3752 -22.3749  -7.0630  -6.1720  -6.0841  -5.0652
    -5.0445  -5.0419  -4.9291  -4.8990   3.9603   6.8221   6.9936   7.3270
     8.4516   8.5205   9.0635   9.1988   9.3668   9.5591  12.9371  12.9871
    13.0549  15.1151

          k =-0.0500 0.2500 0.1500 (  5077 PWs)   bands (ev):

   -46.1209 -22.4604 -22.3744 -22.3634  -6.8981  -6.1392  -6.0405  -5.0738
    -5.0560  -5.0500  -4.9481  -4.9036   3.6483   6.7402   7.0017   7.2665
     8.1058   8.3750   8.8543   9.2829   9.3803   9.7919  12.7911  13.4981
    13.5709  14.9767

          k = 0.2500 0.0500 0.1500 (  5077 PWs)   bands (ev):

   -46.1209 -22.4311 -22.3922 -22.3744  -6.9346  -6.1231  -6.0332  -5.0775
    -5.0532  -5.0420  -4.9590  -4.8975   3.6660   6.7979   7.0596   7.2757
     8.1804   8.3152   8.9121   9.2173   9.3906   9.6783  12.9589  13.3233
    13.4363  15.1479

          k =-0.0500 0.3500 0.1500 (  5080 PWs)   bands (ev):

   -46.1206 -22.4778 -22.3737 -22.3627  -6.7374  -6.1056  -5.9874  -5.0977
    -5.0582  -5.0535  -4.9783  -4.9001   3.3904   6.4217   7.0254   7.2839
     7.8800   8.1501   8.9200   9.2722   9.4367  10.0894  12.7840  13.8819
    13.9274  14.5193

          k = 0.3500 0.0500 0.1500 (  5080 PWs)   bands (ev):

   -46.1206 -22.4305 -22.4092 -22.3737  -6.8052  -6.0622  -5.9853  -5.0945
    -5.0588  -5.0415  -4.9950  -4.8938   3.4190   6.5120   7.0977   7.3702
     7.9012   8.2661   8.6633   9.2691   9.4252   9.9761  12.9437  13.7245
    13.8117  14.4889

          k =-0.0500 0.4500 0.1500 (  5079 PWs)   bands (ev):

   -46.1204 -22.4885 -22.3733 -22.3623  -6.6331  -6.0857  -5.9520  -5.1184
    -5.0630  -5.0537  -4.9888  -4.9022   3.2503   6.1284   7.0496   7.4031
     7.7397   7.9730   9.0158   9.2494   9.4746  10.3208  12.7706  13.9879
    14.1213  14.1825

          k = 0.4500 0.0500 0.1500 (  5079 PWs)   bands (ev):

   -46.1204 -22.4300 -22.4197 -22.3733  -6.7257  -6.0104  -5.9635  -5.1106
    -5.0631  -5.0412  -5.0109  -4.8946   3.2860   6.2290   7.2019   7.4752
     7.8158   8.0284   8.6357   9.2556   9.4662  10.2346  12.9119  13.9732
    13.9946  14.0538

          k = 0.2500 0.0500 0.2500 (  5076 PWs)   bands (ev):

   -46.1206 -22.4305 -22.3917 -22.3913  -6.8279  -6.0837  -5.9771  -5.0787
    -5.0559  -5.0475  -4.9294  -4.9244   3.4543   6.7493   7.0080   7.2590
     7.9158   7.9748   8.8869   9.0527   9.5951   9.7444  13.2501  13.3729
    13.7106  15.0889

          k =-0.0500 0.3500 0.2500 (  5080 PWs)   bands (ev):

   -46.1202 -22.4770 -22.3907 -22.3621  -6.6443  -6.0662  -5.9541  -5.0913
    -5.0661  -5.0540  -4.9401  -4.8910   3.2319   6.3796   6.9523   7.2002
     7.7825   8.0498   8.4831   9.0949   9.5541   9.9910  13.2314  13.8886
    14.0613  14.7929

          k = 0.3500 0.0500 0.2500 (  5080 PWs)   bands (ev):

   -46.1202 -22.4298 -22.4084 -22.3907  -6.7323  -6.0209  -5.9229  -5.0851
    -5.0582  -5.0493  -4.9435  -4.9112   3.2606   6.5171   6.9000   7.2715
     7.7116   7.9831   8.5857   9.1032   9.6357   9.8928  13.2783  13.7238
    13.9946  14.7774

          k =-0.0500 0.4500 0.2500 (  5084 PWs)   bands (ev):

   -46.1200 -22.4876 -22.3902 -22.3617  -6.5677  -6.0289  -5.9268  -5.1033
    -5.0652  -5.0607  -4.9375  -4.8850   3.1154   6.1027   6.9553   7.1739
     7.7490   7.9735   8.4779   9.1347   9.5257  10.0411  13.2207  14.1252
    14.2253  14.6643

          k = 0.4500 0.0500 0.2500 (  5084 PWs)   bands (ev):

   -46.1200 -22.4294 -22.4189 -22.3903  -6.6810  -5.9599  -5.8975  -5.0942
    -5.0611  -5.0523  -4.9360  -4.9138   3.1503   6.2378   6.9794   7.1582
     7.7493   8.0694   8.3074   9.1770   9.5723  10.0033  13.2611  13.9844
    14.1830  14.5797

          k = 0.3500 0.0500 0.3500 (  5079 PWs)   bands (ev):

   -46.1199 -22.4291 -22.4078 -22.4075  -6.6827  -5.9423  -5.8587  -5.0802
    -5.0629  -5.0484  -4.9624  -4.8662   3.1069   6.4616   6.5933   7.2553
     7.4678   7.9727   8.5832   8.8486   9.5896  10.0006  13.6371  13.7585
    14.1952  15.0263

          k =-0.0500 0.4500 0.3500 (  5079 PWs)   bands (ev):

   -46.1197 -22.4868 -22.4071 -22.3610  -6.5366  -5.9658  -5.8512  -5.0934
    -5.0715  -5.0586  -4.9717  -4.7975   2.9835   6.0661   6.6094   7.2165
     7.6498   7.9695   8.3107   8.8242   9.3639  10.0722  13.6362  14.1249
    14.4036  15.2046

          k = 0.4500 0.0500 0.3500 (  5079 PWs)   bands (ev):

   -46.1197 -22.4287 -22.4181 -22.4072  -6.6635  -5.8674  -5.8248  -5.0831
    -5.0615  -5.0554  -4.9731  -4.8357   3.0150   6.2085   6.6019   7.1515
     7.4361   8.1340   8.3652   8.8431   9.3959  10.1451  13.6834  13.9777
    14.3383  15.1240

          k = 0.4500 0.0500 0.4500 (  5100 PWs)   bands (ev):

   -46.1195 -22.4283 -22.4176 -22.4176  -6.6633  -5.7905  -5.7774  -5.0822
    -5.0598  -5.0557  -4.9998  -4.7891   2.9321   6.0926   6.4628   7.1999
     7.2242   8.2745   8.4201   8.5984   9.1386  10.3151  13.9598  13.9814
    14.4419  15.3819

          k =-0.1500 0.2500 0.1500 (  5084 PWs)   bands (ev):

   -46.1207 -22.4600 -22.3741 -22.3739  -6.8233  -6.1184  -6.0330  -5.0816
    -5.0652  -5.0367  -4.9240  -4.9042   3.5670   6.7284   6.7702   7.3159
     7.9903   8.1563   8.8119   9.3676   9.4682   9.6748  12.9942  13.5324
    13.5747  15.1662

          k =-0.1500 0.3500 0.1500 (  5082 PWs)   bands (ev):

   -46.1204 -22.4773 -22.3734 -22.3732  -6.6681  -6.0856  -5.9996  -5.0997
    -5.0613  -5.0244  -4.9461  -4.9005   3.3509   6.4235   6.7158   7.2144
     7.8373   8.1578   8.6202   9.3857   9.5166   9.9401  12.9329  13.8857
    13.9075  14.6759

          k =-0.1500 0.4500 0.1500 (  5084 PWs)   bands (ev):

   -46.1202 -22.4880 -22.3729 -22.3728  -6.5694  -6.0650  -5.9781  -5.1089
    -5.0588  -5.0100  -4.9627  -4.9050   3.2284   6.1322   6.6736   7.2681
     7.7701   8.1394   8.5555   9.3835   9.5455  10.0715  12.8751  14.1109
    14.1173  14.4542

          k = 0.2500 0.1500 0.2500 (  5081 PWs)   bands (ev):

   -46.1204 -22.4412 -22.3912 -22.3908  -6.7390  -6.0836  -5.9857  -5.0813
    -5.0663  -5.0230  -4.9107  -4.8989   3.4401   6.6437   6.7532   7.1211
     7.6286   7.9248   9.0820   9.2240   9.5722   9.6150  13.3196  13.4809
    13.6694  14.9498

          k =-0.1500 0.3500 0.2500 (  5080 PWs)   bands (ev):

   -46.1200 -22.4765 -22.3903 -22.3726  -6.5686  -6.0657  -5.9851  -5.0904
    -5.0636  -5.0041  -4.9115  -4.8762   3.2740   6.3695   6.5987   6.9127
     7.5240   7.9561   8.7057   9.3406   9.5801   9.7930  13.2217  13.8461
    13.9941  14.9225

          k = 0.3500 0.1500 0.2500 (  5080 PWs)   bands (ev):

   -46.1200 -22.4405 -22.4080 -22.3903  -6.6432  -6.0430  -5.9424  -5.0836
    -5.0587  -5.0036  -4.9111  -4.8923   3.2981   6.4811   6.6580   6.8655
     7.4344   7.9262   8.8952   9.2627   9.5380   9.7863  13.2888  13.7347
    13.9419  14.9058

          k =-0.1500 0.4500 0.2500 (  5077 PWs)   bands (ev):

   -46.1198 -22.4871 -22.3898 -22.3722  -6.4905  -6.0349  -5.9763  -5.0926
    -5.0587  -4.9866  -4.9172  -4.8703   3.1800   6.1093   6.4931   6.9043
     7.5009   8.0362   8.5222   9.4014   9.5263   9.8150  13.1948  14.0707
    14.1841  15.0046

          k = 0.4500 0.1500 0.2500 (  5077 PWs)   bands (ev):

   -46.1198 -22.4401 -22.4184 -22.3899  -6.5928  -6.0117  -5.9102  -5.0835
    -5.0519  -4.9873  -4.9100  -4.8970   3.2115   6.2362   6.5850   6.8381
     7.3951   7.9932   8.7069   9.3226   9.4491   9.8581  13.2631  13.9466
    14.1458  14.9518

          k = 0.3500 0.1500 0.3500 (  5081 PWs)   bands (ev):

   -46.1197 -22.4398 -22.4073 -22.4071  -6.5916  -5.9821  -5.9045  -5.0751
    -5.0507  -4.9828  -4.9119  -4.8507   3.2081   6.4418   6.4726   6.6468
     7.0482   7.9021   8.9328   9.1217   9.3325  10.0035  13.5423  13.7725
    14.1147  15.1875

          k =-0.1500 0.4500 0.3500 (  5079 PWs)   bands (ev):

   -46.1195 -22.4863 -22.4067 -22.3715  -6.4526  -6.0052  -5.9183  -5.0817
    -5.0413  -4.9723  -4.9359  -4.7818   3.1168   6.0523   6.5260   6.5514
     7.0335   7.9832   8.6208   9.1111   9.2542  10.0384  13.5858  14.0374
    14.3099  15.4864

          k = 0.4500 0.1500 0.3500 (  5079 PWs)   bands (ev):

   -46.1195 -22.4394 -22.4176 -22.4067  -6.5734  -5.9323  -5.8755  -5.0716
    -5.0383  -4.9696  -4.9224  -4.8212   3.1473   6.2020   6.4877   6.5481
     6.9378   7.9400   8.7654   9.1051   9.1934  10.1353  13.6325  13.9247
    14.2643  15.4421

          k = 0.4500 0.1500 0.4500 (  5073 PWs)   bands (ev):

   -46.1193 -22.4390 -22.4171 -22.4171  -6.5746  -5.8656  -5.8537  -5.0667
    -5.0162  -4.9570  -4.9437  -4.7742   3.0999   6.0832   6.4261   6.5661
     6.6435   7.9598   8.5627   9.0574   9.0698  10.3095  13.8943  13.9338
    14.3693  15.7518

          k =-0.2500 0.3500 0.2500 (  5072 PWs)   bands (ev):

   -46.1197 -22.4758 -22.3897 -22.3895  -6.4573  -6.0654  -6.0144  -5.0740
    -5.0547  -4.9543  -4.8680  -4.8417   3.3296   6.2113   6.3470   6.6373
     7.3459   7.3802   8.8347   9.5203   9.6197   9.7440  13.2979  13.8563
    13.9841  15.1733

          k =-0.2500 0.4500 0.2500 (  5073 PWs)   bands (ev):

   -46.1195 -22.4864 -22.3892 -22.3890  -6.3812  -6.0446  -6.0235  -5.0720
    -5.0448  -4.9113  -4.8760  -4.8282   3.2786   6.0768   6.1243   6.5555
     7.3191   7.4108   8.5935   9.4814   9.6506   9.7978  13.3471  14.0133
    14.1835  15.4612

          k = 0.3500 0.2500 0.3500 (  5057 PWs)   bands (ev):

   -46.1194 -22.4571 -22.4066 -22.4064  -6.4419  -6.0384  -5.9688  -5.0515
    -5.0411  -4.9035  -4.8295  -4.8182   3.3799   6.1162   6.1358   6.4489
     6.8617   7.2733   8.4961   9.5795   9.6071  10.0091  13.5152  13.8796
    14.0824  15.4959

          k =-0.2500 0.4500 0.3500 (  5063 PWs)   bands (ev):

   -46.1191 -22.4856 -22.4060 -22.3885  -6.3188  -6.0604  -6.0036  -5.0559
    -5.0212  -4.8775  -4.8402  -4.7506   3.3624   5.8936   6.1221   6.2352
     6.7621   7.3282   8.0998   9.5439   9.7272  10.0228  13.6471  14.0144
    14.2565  15.8627

          k = 0.4500 0.2500 0.3500 (  5063 PWs)   bands (ev):

   -46.1191 -22.4567 -22.4169 -22.4060  -6.4254  -6.0202  -5.9431  -5.0460
    -5.0262  -4.8590  -4.8293  -4.7889   3.3892   5.9817   6.1218   6.1972
     6.7503   7.2725   8.1336   9.5986   9.6222  10.1300  13.6946  13.9320
    14.2321  15.8472

          k = 0.4500 0.2500 0.4500 (  5070 PWs)   bands (ev):

   -46.1189 -22.4562 -22.4164 -22.4164  -6.4292  -5.9617  -5.9507  -5.0393
    -5.0095  -4.8253  -4.8150  -4.7452   3.4298   5.9581   5.9868   6.0786
     6.5020   7.2515   7.7028   9.6324   9.6348  10.3006  13.9199  13.9759
    14.3204  16.1766

          k =-0.3500 0.4500 0.3500 (  5056 PWs)   bands (ev):

   -46.1188 -22.4848 -22.4054 -22.4052  -6.2060  -6.1041  -6.0564  -5.0317
    -5.0087  -4.8007  -4.7452  -4.7056   3.6582   5.5999   5.8464   6.0625
     6.6433   6.8117   7.3317   9.9127  10.0053  10.0520  13.8560  14.1067
    14.2549  16.2629

          k = 0.4500 0.3500 0.4500 (  5051 PWs)   bands (ev):

   -46.1186 -22.4734 -22.4157 -22.4157  -6.2815  -6.0408  -6.0294  -5.0118
    -5.0069  -4.7222  -4.6996  -4.6982   3.8962   5.5531   5.5652   5.9983
     6.4996   6.6618   6.7616   9.9980  10.0055  10.2917  14.0815  14.1410
    14.2977  16.6267

     the Fermi energy is    10.4084 ev

!    total energy              =    -364.95593302 Ry
     Harris-Foulkes estimate   =    -364.95593303 Ry
     estimated scf accuracy    <          2.2E-09 Ry

     The total energy is the sum of the following terms:

     one-electron contribution =     -83.32921765 Ry
     hartree contribution      =      71.05884397 Ry
     xc contribution           =     -85.82146070 Ry
     ewald contribution        =    -266.87023870 Ry
     smearing contrib. (-TS)   =       0.00614006 Ry

     convergence has been achieved in   6 iterations

     Forces acting on atoms (cartesian axes, Ry/au):

     atom    1 type  1   force =     0.00000000    0.01532450    0.00000000
     atom    2 type  2   force =     0.00000000   -0.02230982    0.00000000
     atom    3 type  3   force =     0.00000000    0.00221252    0.00000000
     atom    4 type  3   force =     0.00000000    0.00256029    0.00000000
     atom    5 type  3   force =     0.00000000    0.00221252    0.00000000

     Total force =     0.004043     Total SCF correction =     0.000017


     Computing stress (Cartesian axis) and pressure

          total   stress  (Ry/bohr**3)                   (kbar)     P=   12.04
   0.00001595   0.00000000   0.00000000          2.35      0.00      0.00
   0.00000000   0.00021368   0.00000000          0.00     31.43      0.00
   0.00000000   0.00000000   0.00001595          0.00      0.00      2.35


     number of scf cycles    =   2
     number of bfgs steps    =   1

     energy   old            =    -364.9559146477 Ry
     energy   new            =    -364.9559330247 Ry

     CASE: energy  _new < energy  _old


     WARNING: bfgs curvature condition failed, Theta= 0.874
     new trust radius        =       0.0035169420 bohr
     new conv_thr            =            1.0E-10 Ry


ATOMIC_POSITIONS (crystal)
Pb       0.000000000   0.000000000   0.000000000    0   0   0
Ti       0.500000000   0.540000000   0.500000000    0   0   0
O        0.500000000   0.500653936   0.000000000
O        0.500000000   0.000896417   0.500000000
O        0.000000000   0.500653936   0.500000000



     Writing output data file PbTiO3.save/
     NEW-OLD atomic charge density approx. for the potential

     Check: negative core charge=   -0.000006

     total cpu time spent up to now is      503.5 secs

     Self-consistent Calculation

     iteration #  1     ecut=    80.00 Ry     beta= 0.70
     Davidson diagonalization with overlap
     ethr =  1.00E-06,  avg # of iterations =  2.4

     Threshold (ethr) on eigenvalues was too large:
     Diagonalizing with lowered threshold

     Davidson diagonalization with overlap
     ethr =  7.93E-09,  avg # of iterations =  3.4

     total cpu time spent up to now is      547.4 secs

     total energy              =    -364.95595250 Ry
     Harris-Foulkes estimate   =    -364.95595477 Ry
     estimated scf accuracy    <       0.00000372 Ry

     iteration #  2     ecut=    80.00 Ry     beta= 0.70
     Davidson diagonalization with overlap
     ethr =  8.45E-09,  avg # of iterations =  3.9

     total cpu time spent up to now is      571.0 secs

     total energy              =    -364.95595168 Ry
     Harris-Foulkes estimate   =    -364.95595504 Ry
     estimated scf accuracy    <       0.00000802 Ry

     iteration #  3     ecut=    80.00 Ry     beta= 0.70
     Davidson diagonalization with overlap
     ethr =  8.45E-09,  avg # of iterations =  3.2

     total cpu time spent up to now is      593.5 secs

     total energy              =    -364.95595344 Ry
     Harris-Foulkes estimate   =    -364.95595385 Ry
     estimated scf accuracy    <       0.00000130 Ry

     iteration #  4     ecut=    80.00 Ry     beta= 0.70
     Davidson diagonalization with overlap
     ethr =  2.96E-09,  avg # of iterations =  2.7

     total cpu time spent up to now is      613.8 secs

     total energy              =    -364.95595362 Ry
     Harris-Foulkes estimate   =    -364.95595364 Ry
     estimated scf accuracy    <       0.00000003 Ry

     iteration #  5     ecut=    80.00 Ry     beta= 0.70
     Davidson diagonalization with overlap
     ethr =  7.82E-11,  avg # of iterations =  3.9

     total cpu time spent up to now is      638.4 secs

     total energy              =    -364.95595363 Ry
     Harris-Foulkes estimate   =    -364.95595364 Ry
     estimated scf accuracy    <       0.00000003 Ry

     iteration #  6     ecut=    80.00 Ry     beta= 0.70
     Davidson diagonalization with overlap
     ethr =  6.89E-11,  avg # of iterations =  2.9

     total cpu time spent up to now is      659.4 secs

     total energy              =    -364.95595364 Ry
     Harris-Foulkes estimate   =    -364.95595364 Ry
     estimated scf accuracy    <          3.1E-09 Ry

     iteration #  7     ecut=    80.00 Ry     beta= 0.70
     Davidson diagonalization with overlap
     ethr =  7.05E-12,  avg # of iterations =  2.3

     total cpu time spent up to now is      680.2 secs

     End of self-consistent calculation

          k = 0.0500 0.0500 0.0500 (  5047 PWs)   bands (ev):

   -46.1250 -22.4339 -22.3681 -22.3681  -7.2240  -6.2316  -6.1470  -5.0484
    -5.0360  -5.0357  -4.8978  -4.8869   4.4706   6.8193   6.8538   6.9902
     8.8659   8.8907   9.1716   9.3182   9.5256   9.5380  12.4680  12.8094
    12.8126  14.6457

          k = 0.0500 0.0500 0.1500 (  5074 PWs)   bands (ev):

   -46.1247 -22.4335 -22.3787 -22.3677  -7.1415  -6.1982  -6.1168  -5.0562
    -5.0437  -5.0352  -4.9289  -4.8848   4.1742   6.8716   6.9289   7.1725
     8.6443   8.7953   9.1423   9.2051   9.3765   9.5267  12.7836  12.8210
    12.9637  14.7980

          k = 0.0500 0.0500 0.2500 (  5093 PWs)   bands (ev):

   -46.1244 -22.4329 -22.3959 -22.3671  -7.0037  -6.1396  -6.0683  -5.0696
    -5.0560  -5.0344  -4.9853  -4.8793   3.8061   6.8718   7.0472   7.1838
     8.4686   8.5516   9.0678   9.1416   9.3357   9.5958  12.8165  13.2555
    13.3310  14.8001

          k = 0.0500 0.0500 0.3500 (  5090 PWs)   bands (ev):

   -46.1241 -22.4323 -22.4130 -22.3665  -6.8598  -6.0725  -6.0225  -5.0905
    -5.0685  -5.0398  -5.0335  -4.8758   3.5187   6.5107   7.2253   7.3420
     8.1700   8.2692   9.0041   9.1150   9.4546   9.9640  12.8178  13.6795
    13.7415  14.2833

          k = 0.0500 0.0500 0.4500 (  5073 PWs)   bands (ev):

   -46.1238 -22.4318 -22.4235 -22.3661  -6.7671  -6.0205  -6.0010  -5.1192
    -5.0771  -5.0607  -5.0330  -4.8749   3.3699   6.2187   7.4080   7.5927
     7.8888   7.9598   8.9619   9.1373   9.5076  10.4062  12.8096  13.5628
    13.9306  14.0116

          k = 0.0500 0.1500 0.1500 (  5079 PWs)   bands (ev):

   -46.1245 -22.4444 -22.3783 -22.3673  -7.0507  -6.1745  -6.0896  -5.0575
    -5.0530  -5.0421  -4.9216  -4.9040   3.9540   6.8257   6.9369   7.3423
     8.3880   8.6170   8.9908   9.2499   9.3339   9.5911  12.7893  13.0858
    13.1980  14.9410

          k = 0.0500 0.1500 0.2500 (  5077 PWs)   bands (ev):

   -46.1242 -22.4437 -22.3954 -22.3667  -6.9178  -6.1236  -6.0475  -5.0752
    -5.0609  -5.0416  -4.9524  -4.8957   3.6590   6.7810   7.0507   7.2758
     8.1915   8.4243   8.8546   9.1330   9.2992   9.7557  13.0789  13.2599
    13.5026  15.0068

          k = 0.0500 0.1500 0.3500 (  5080 PWs)   bands (ev):

   -46.1238 -22.4430 -22.4125 -22.3660  -6.7816  -6.0721  -6.0003  -5.0952
    -5.0689  -5.0412  -4.9803  -4.8917   3.4123   6.4979   7.1474   7.3328
     7.9326   8.2382   8.8051   9.1480   9.2829  10.0108  13.0774  13.6760
    13.8614  14.4458

          k = 0.0500 0.1500 0.4500 (  5079 PWs)   bands (ev):

   -46.1236 -22.4426 -22.4230 -22.3656  -6.6959  -6.0398  -5.9679  -5.1111
    -5.0765  -5.0408  -4.9897  -4.8936   3.2797   6.2238   7.2578   7.4894
     7.7710   7.9648   8.8547   9.2043   9.2558  10.2155  13.0620  13.9191
    13.9620  14.1054

          k = 0.0500 0.2500 0.2500 (  5076 PWs)   bands (ev):

   -46.1238 -22.4611 -22.3947 -22.3660  -6.7790  -6.1001  -6.0034  -5.0801
    -5.0640  -5.0491  -4.9272  -4.9102   3.4365   6.6671   7.0561   7.1927
     7.9751   8.1240   8.6299   9.0659   9.4891   9.8884  13.2391  13.4982
    13.7822  14.9964

          k = 0.0500 0.2500 0.3500 (  5080 PWs)   bands (ev):

   -46.1235 -22.4603 -22.4117 -22.3654  -6.6659  -6.0656  -5.9460  -5.0896
    -5.0681  -5.0505  -4.9382  -4.8891   3.2437   6.4714   6.9280   7.2686
     7.7566   8.0870   8.5089   8.9226   9.5999   9.9072  13.4737  13.6698
    14.0548  14.7282

          k = 0.0500 0.2500 0.4500 (  5084 PWs)   bands (ev):

   -46.1233 -22.4598 -22.4221 -22.3650  -6.6016  -6.0403  -5.9034  -5.0970
    -5.0750  -5.0518  -4.9316  -4.8857   3.1346   6.2260   6.9617   7.2513
     7.6904   8.0702   8.4395   8.9276   9.6101   9.8938  13.4702  13.9086
    14.2522  14.5469

          k = 0.0500 0.3500 0.3500 (  5079 PWs)   bands (ev):

   -46.1232 -22.4775 -22.4109 -22.3647  -6.5754  -6.0212  -5.8868  -5.0879
    -5.0708  -5.0531  -4.9602  -4.8322   3.0811   6.3197   6.6411   7.2794
     7.6561   7.9511   8.3974   8.8209   9.5821   9.9425  13.6406  13.8807
    14.2572  15.0224

          k = 0.0500 0.3500 0.4500 (  5079 PWs)   bands (ev):

   -46.1229 -22.4770 -22.4213 -22.3643  -6.5465  -5.9839  -5.8324  -5.0896
    -5.0736  -5.0567  -4.9686  -4.7981   2.9916   6.1767   6.5228   7.3116
     7.5163   8.1160   8.2863   8.7189   9.3788  10.0338  13.8639  13.8973
    14.4212  15.0981

          k = 0.0500 0.4500 0.4500 (  5100 PWs)   bands (ev):

   -46.1227 -22.4876 -22.4208 -22.3639  -6.5333  -5.9195  -5.7847  -5.0914
    -5.0727  -5.0574  -4.9924  -4.7476   2.9047   6.0115   6.3905   7.3331
     7.4400   8.0949   8.3262   8.6193   9.0651  10.2103  13.8751  14.1175
    14.5404  15.4373

          k = 0.1500 0.1500 0.1500 (  5095 PWs)   bands (ev):

   -46.1243 -22.4440 -22.3780 -22.3778  -6.9730  -6.1507  -6.0660  -5.0660
    -5.0594  -5.0411  -4.9164  -4.9067   3.8047   6.8078   6.8444   7.4585
     8.2276   8.3413   8.9979   9.3072   9.4051   9.4747  13.0182  13.1860
    13.2087  15.4422

          k = 0.1500 0.1500 0.2500 (  5084 PWs)   bands (ev):

   -46.1240 -22.4433 -22.3950 -22.3772  -6.8469  -6.1112  -6.0251  -5.0819
    -5.0599  -5.0370  -4.9333  -4.8958   3.5787   6.7447   6.8421   7.3077
     7.9867   8.1406   8.9814   9.2327   9.4021   9.6543  13.1540  13.3913
    13.4968  15.1488

          k = 0.1500 0.1500 0.3500 (  5082 PWs)   bands (ev):

   -46.1236 -22.4426 -22.4120 -22.3766  -6.7217  -6.0702  -5.9789  -5.0954
    -5.0530  -5.0298  -4.9569  -4.8916   3.3741   6.4986   6.8450   7.1904
     7.7716   8.1987   8.7021   9.3031   9.4167   9.8732  13.0943  13.7329
    13.8490  14.6401

          k = 0.1500 0.1500 0.4500 (  5084 PWs)   bands (ev):

   -46.1234 -22.4422 -22.4225 -22.3762  -6.6459  -6.0443  -5.9461  -5.1010
    -5.0481  -5.0209  -4.9739  -4.8949   3.2592   6.2302   6.8395   7.2441
     7.6708   8.3122   8.4593   9.3652   9.4062   9.9855  13.0313  13.9554
    14.0868  14.3985

          k = 0.1500 0.2500 0.2500 (  5081 PWs)   bands (ev):

   -46.1236 -22.4606 -22.3943 -22.3766  -6.7058  -6.0923  -6.0062  -5.0840
    -5.0681  -5.0236  -4.9076  -4.8928   3.4286   6.6104   6.7239   7.1292
     7.6725   7.9445   8.9472   9.2353   9.5270   9.7319  13.2831  13.5245
    13.7321  14.9417

          k = 0.1500 0.2500 0.3500 (  5080 PWs)   bands (ev):

   -46.1233 -22.4599 -22.4112 -22.3759  -6.5960  -6.0773  -5.9551  -5.0871
    -5.0585  -5.0116  -4.9112  -4.8736   3.2867   6.4494   6.6737   6.8872
     7.3951   7.9852   8.9071   9.1308   9.5965   9.7440  13.3640  13.6972
    13.9871  14.8985

          k = 0.1500 0.2500 0.4500 (  5077 PWs)   bands (ev):

   -46.1231 -22.4594 -22.4217 -22.3755  -6.5347  -6.0696  -5.9127  -5.0864
    -5.0498  -5.0060  -4.9062  -4.8721   3.2008   6.2265   6.6261   6.8354
     7.3179   8.0815   8.7067   9.2210   9.5246   9.7461  13.3533  13.9006
    14.1873  14.9432

          k = 0.1500 0.3500 0.3500 (  5081 PWs)   bands (ev):

   -46.1230 -22.4771 -22.4104 -22.3752  -6.4949  -6.0508  -5.9299  -5.0829
    -5.0507  -4.9917  -4.9184  -4.8168   3.1852   6.2874   6.5649   6.6566
     7.0751   7.9517   8.8202   9.1015   9.4033   9.9174  13.5501  13.8243
    14.1624  15.1955

          k = 0.1500 0.3500 0.4500 (  5079 PWs)   bands (ev):
[...]
    -5.0542  -4.9759  -4.8656  -4.8536   3.4101   6.4723   6.4899   7.0303
     7.3732   7.4208   9.2061   9.4558   9.4790   9.6777  13.2834  13.6128
    13.6274  14.9565

          k = 0.2500 0.2500 0.3500 (  5072 PWs)   bands (ev):

   -46.2005 -22.4983 -22.4882 -22.4705  -6.4903  -6.0740  -5.9966  -5.0521
    -5.0374  -4.9378  -4.8476  -4.8352   3.3510   6.2872   6.3729   6.6249
     7.1817   7.3672   8.9345   9.5004   9.5599   9.7958  13.3092  13.7332
    13.8985  15.1633

          k = 0.2500 0.2500 0.4500 (  5073 PWs)   bands (ev):

   -46.2002 -22.4987 -22.4978 -22.4700  -6.4377  -6.0814  -5.9544  -5.0485
    -5.0261  -4.8982  -4.8502  -4.8271   3.3059   6.1561   6.1905   6.4868
     7.1459   7.4058   8.6802   9.5011   9.5686   9.8528  13.3556  13.8810
    14.1022  15.4476

          k = 0.2500 0.3500 0.3500 (  5057 PWs)   bands (ev):

   -46.2001 -22.5154 -22.4874 -22.4698  -6.3862  -6.0627  -6.0122  -5.0413
    -5.0198  -4.8938  -4.8277  -4.7772   3.3775   6.1034   6.1705   6.4299
     6.7675   7.2579   8.4927   9.5944   9.6588   9.9535  13.4868  13.8174
    14.0455  15.4963

          k = 0.2500 0.3500 0.4500 (  5063 PWs)   bands (ev):

   -46.1999 -22.5149 -22.4979 -22.4694  -6.3550  -6.0727  -5.9695  -5.0355
    -5.0044  -4.8587  -4.8227  -4.7440   3.3804   5.9979   6.1225   6.1750
     6.6504   7.2680   8.1292   9.6295   9.6490  10.0649  13.6586  13.8799
    14.1984  15.8605

          k = 0.2500 0.4500 0.4500 (  5070 PWs)   bands (ev):

   -46.1997 -22.5253 -22.4974 -22.4689  -6.3410  -6.0244  -5.9798  -5.0302
    -4.9863  -4.8328  -4.8088  -4.6928   3.4114   5.9441   6.0217   6.0672
     6.3855   7.2573   7.6858   9.6289   9.6850  10.2215  13.8590  13.9334
    14.3093  16.2001

          k = 0.3500 0.3500 0.3500 (  5055 PWs)   bands (ev):

   -46.1998 -22.5146 -22.4868 -22.4866  -6.2796  -6.0791  -6.0520  -5.0156
    -5.0106  -4.8183  -4.7576  -4.7421   3.5592   5.8257   5.8485   6.3204
     6.7106   6.7215   7.8413   9.8721   9.9113  10.0137  13.6477  14.0140
    14.0247  15.8777

          k = 0.3500 0.3500 0.4500 (  5056 PWs)   bands (ev):

   -46.1996 -22.5142 -22.4972 -22.4863  -6.2489  -6.1010  -6.0242  -5.0085
    -4.9969  -4.7623  -4.7367  -4.7071   3.6688   5.6539   5.7753   6.0962
     6.5742   6.7115   7.3545   9.9241   9.9963  10.1165  13.8465  14.0095
    14.1879  16.2724

          k = 0.3500 0.4500 0.4500 (  5051 PWs)   bands (ev):

   -46.1994 -22.5246 -22.4967 -22.4859  -6.1995  -6.0959  -6.0555  -5.0023
    -4.9830  -4.7226  -4.6959  -4.6545   3.8715   5.5548   5.5998   5.9667
     6.3687   6.6607   6.7666  10.0268  10.0765  10.2134  14.0208  14.0883
    14.2681  16.6455

          k = 0.4500 0.4500 0.4500 (  5034 PWs)   bands (ev):

   -46.1992 -22.5242 -22.4963 -22.4963  -6.1451  -6.1057  -6.0935  -4.9860
    -4.9805  -4.6579  -4.6318  -4.6260   4.3388   5.3574   5.3751   5.8614
     6.0055   6.3614   6.3991  10.1993  10.2089  10.2510  14.1890  14.2409
    14.2486  17.0100

          k =-0.0500 0.1500 0.0500 (  5074 PWs)   bands (ev):

   -46.2022 -22.4840 -22.4452 -22.4451  -7.1418  -6.1892  -6.1554  -5.0308
    -5.0287  -5.0274  -4.9077  -4.8796   4.1902   6.8654   6.8832   7.1724
     8.7630   8.8027   9.1880   9.2313   9.5314   9.5324  12.4079  12.8645
    12.8690  14.5472

          k =-0.0500 0.2500 0.0500 (  5093 PWs)   bands (ev):

   -46.2019 -22.5014 -22.4445 -22.4445  -6.9926  -6.1431  -6.1001  -5.0468
    -5.0384  -5.0267  -4.9643  -4.8728   3.8216   6.8480   7.0034   7.1401
     8.4385   8.4920   9.1359   9.2424   9.5624   9.6506  12.4109  13.3087
    13.3195  14.5484

          k =-0.0500 0.3500 0.0500 (  5090 PWs)   bands (ev):

   -46.2016 -22.5186 -22.4439 -22.4439  -6.8345  -6.0999  -6.0383  -5.0714
    -5.0472  -5.0258  -5.0190  -4.8681   3.5334   6.4517   7.1580   7.2660
     8.1221   8.1595   9.0713   9.4160   9.6084  10.0313  12.4127  13.7241
    13.7365  14.3404

          k =-0.0500 0.4500 0.0500 (  5073 PWs)   bands (ev):

   -46.2013 -22.5292 -22.4435 -22.4435  -6.7311  -6.0757  -5.9954  -5.1012
    -5.0521  -5.0428  -5.0252  -4.8662   3.3847   6.1311   7.3003   7.4709
     7.8680   7.8940   9.0297   9.4946   9.6414  10.4749  12.4111  13.6085
    13.9726  13.9859

          k = 0.1500 0.0500 0.1500 (  5079 PWs)   bands (ev):

   -46.2020 -22.4725 -22.4560 -22.4557  -7.0633  -6.1629  -6.1239  -5.0464
    -5.0302  -5.0270  -4.9129  -4.8836   3.9718   6.8163   6.9717   7.3324
     8.5234   8.5848   9.1689   9.2296   9.3270   9.5590  12.7928  12.8442
    12.9884  14.9082

          k =-0.0500 0.2500 0.1500 (  5077 PWs)   bands (ev):

   -46.2017 -22.5009 -22.4552 -22.4441  -6.9155  -6.1179  -6.0821  -5.0572
    -5.0381  -5.0327  -4.9326  -4.8881   3.6763   6.7611   7.0280   7.2589
     8.1505   8.4370   8.8615   9.3121   9.3668   9.7638  12.7349  13.3151
    13.4468  14.8719

          k = 0.2500 0.0500 0.1500 (  5077 PWs)   bands (ev):

   -46.2017 -22.4733 -22.4717 -22.4552  -6.9283  -6.1202  -6.0714  -5.0617
    -5.0369  -5.0270  -4.9390  -4.8816   3.6752   6.7785   7.0520   7.2687
     8.1891   8.3920   8.9066   9.2848   9.3726   9.7022  12.8125  13.2504
    13.3825  14.9569

          k =-0.0500 0.3500 0.1500 (  5080 PWs)   bands (ev):

   -46.2013 -22.5181 -22.4545 -22.4435  -6.7676  -6.0732  -6.0318  -5.0780
    -5.0432  -5.0331  -4.9630  -4.8834   3.4277   6.4372   7.0839   7.3073
     7.8789   8.1822   8.8907   9.3086   9.4004  10.0611  12.7292  13.7298
    13.8191  14.5116

          k = 0.3500 0.0500 0.1500 (  5080 PWs)   bands (ev):

   -46.2013 -22.4902 -22.4712 -22.4545  -6.7913  -6.0690  -6.0200  -5.0807
    -5.0397  -5.0266  -4.9714  -4.8779   3.4277   6.4669   7.1008   7.3441
     7.9016   8.2478   8.7630   9.3056   9.4121  10.0030  12.8005  13.6735
    13.7661  14.5123

          k =-0.0500 0.4500 0.1500 (  5079 PWs)   bands (ev):

   -46.2011 -22.5287 -22.4541 -22.4431  -6.6741  -6.0410  -6.0013  -5.0956
    -5.0485  -5.0330  -4.9746  -4.8843   3.2943   6.1320   7.1584   7.4522
     7.7327   7.9220   8.9794   9.2866   9.4324  10.2920  12.7165  13.9723
    13.9862  14.0916

          k = 0.4500 0.0500 0.1500 (  5079 PWs)   bands (ev):

   -46.2011 -22.5007 -22.4708 -22.4541  -6.7063  -6.0284  -5.9920  -5.0958
    -5.0421  -5.0266  -4.9867  -4.8788   3.2954   6.1642   7.2005   7.4653
     7.7878   7.9797   8.7922   9.2781   9.4593  10.2498  12.7776  13.9346
    13.9962  14.0245

          k = 0.2500 0.0500 0.2500 (  5076 PWs)   bands (ev):

   -46.2013 -22.4729 -22.4721 -22.4709  -6.8116  -6.0898  -6.0151  -5.0652
    -5.0408  -5.0290  -4.9082  -4.9058   3.4586   6.7234   7.0144   7.2302
     7.9810   8.0083   8.8071   9.0773   9.5825   9.7872  13.1882  13.2902
    13.6709  15.0256

          k =-0.0500 0.3500 0.2500 (  5080 PWs)   bands (ev):

   -46.2010 -22.5173 -22.4716 -22.4428  -6.6736  -6.0436  -5.9810  -5.0718
    -5.0467  -5.0377  -4.9237  -4.8782   3.2610   6.4230   6.9164   7.2365
     7.7706   8.0692   8.4790   9.0594   9.6178   9.9501  13.1910  13.7283
    14.0026  14.7740

          k = 0.3500 0.0500 0.2500 (  5080 PWs)   bands (ev):

   -46.2010 -22.4894 -22.4718 -22.4703  -6.7052  -6.0389  -5.9591  -5.0727
    -5.0416  -5.0295  -4.9222  -4.8896   3.2618   6.4705   6.8939   7.2598
     7.7406   8.0242   8.5519   9.0794   9.6459   9.9004  13.2145  13.6683
    13.9700  14.7773

          k =-0.0500 0.4500 0.2500 (  5084 PWs)   bands (ev):

   -46.2008 -22.5278 -22.4711 -22.4424  -6.6068  -5.9904  -5.9615  -5.0816
    -5.0472  -5.0431  -4.9200  -4.8738   3.1490   6.1312   6.9592   7.1864
     7.7710   7.9757   8.4341   9.0925   9.5851  10.0059  13.1820  13.9777
    14.1867  14.6251

          k = 0.4500 0.0500 0.2500 (  5084 PWs)   bands (ev):

   -46.2008 -22.4999 -22.4714 -22.4699  -6.6474  -5.9894  -5.9287  -5.0802
    -5.0401  -5.0354  -4.9162  -4.8902   3.1504   6.1748   6.9616   7.1724
     7.7538   8.0541   8.3552   9.1365   9.5964   9.9843  13.1998  13.9288
    14.1666  14.6002

          k = 0.3500 0.0500 0.3500 (  5079 PWs)   bands (ev):

   -46.2007 -22.4888 -22.4885 -22.4699  -6.6447  -5.9702  -5.8958  -5.0688
    -5.0451  -5.0265  -4.9414  -4.8412   3.1020   6.4343   6.5286   7.2734
     7.5370   7.9692   8.5302   8.8221   9.6093   9.9744  13.6034  13.6935
    14.1938  15.0157

          k =-0.0500 0.4500 0.3500 (  5079 PWs)   bands (ev):

   -46.2005 -22.5270 -22.4881 -22.4418  -6.5748  -5.9212  -5.8832  -5.0727
    -5.0516  -5.0423  -4.9547  -4.7886   3.0063   6.1132   6.5316   7.2535
     7.6068   8.0479   8.2650   8.7760   9.3967  10.0846  13.6183  13.9752
    14.3776  15.1494

          k = 0.4500 0.0500 0.3500 (  5079 PWs)   bands (ev):

   -46.2005 -22.4991 -22.4881 -22.4695  -6.6210  -5.9025  -5.8598  -5.0704
    -5.0418  -5.0331  -4.9523  -4.8099   3.0071   6.1578   6.5356   7.1970
     7.4938   8.1220   8.3343   8.8032   9.4009  10.1133  13.6373  13.9202
    14.3556  15.1273

          k = 0.4500 0.0500 0.4500 (  5100 PWs)   bands (ev):

   -46.2002 -22.4986 -22.4985 -22.4691  -6.6180  -5.8271  -5.8147  -5.0689
    -5.0374  -5.0321  -4.9793  -4.7627   2.9197   6.0502   6.3660   7.2619
     7.2925   8.2523   8.3848   8.5688   9.1185  10.2802  13.9056  13.9205
    14.4921  15.3727

          k =-0.1500 0.2500 0.1500 (  5084 PWs)   bands (ev):

   -46.2015 -22.5005 -22.4549 -22.4546  -6.8377  -6.0961  -6.0753  -5.0644
    -5.0465  -5.0208  -4.9092  -4.8880   3.5917   6.7387   6.8100   7.3078
     7.9925   8.1640   8.9013   9.3819   9.4437   9.6332  12.9485  13.4188
    13.4372  15.1768

          k =-0.1500 0.3500 0.1500 (  5082 PWs)   bands (ev):

   -46.2011 -22.5176 -22.4542 -22.4540  -6.6958  -6.0506  -6.0437  -5.0804
    -5.0417  -5.0099  -4.9316  -4.8833   3.3844   6.4388   6.7885   7.1932
     7.7897   8.2023   8.6353   9.4193   9.4759   9.9043  12.8873  13.7884
    13.7890  14.6726

          k =-0.1500 0.4500 0.1500 (  5084 PWs)   bands (ev):

   -46.2009 -22.5282 -22.4537 -22.4536  -6.6083  -6.0236  -6.0193  -5.0881
    -5.0387  -4.9969  -4.9484  -4.8865   3.2682   6.1374   6.7663   7.2539
     7.6949   8.2262   8.5072   9.4254   9.4967  10.0404  12.8265  14.0112
    14.0231  14.4423

          k = 0.2500 0.1500 0.2500 (  5081 PWs)   bands (ev):

   -46.2011 -22.4819 -22.4721 -22.4717  -6.7275  -6.0841  -6.0231  -5.0661
    -5.0496  -5.0057  -4.8906  -4.8827   3.4475   6.6459   6.7533   7.1156
     7.6339   7.9004   9.1243   9.1971   9.5967   9.6090  13.2663  13.3999
    13.6152  14.9539

          k =-0.1500 0.3500 0.2500 (  5080 PWs)   bands (ev):

   -46.2008 -22.5168 -22.4712 -22.4534  -6.5937  -6.0476  -6.0069  -5.0714
    -5.0450  -4.9887  -4.8946  -4.8633   3.3005   6.4136   6.6413   6.8692
     7.4683   7.9294   8.7830   9.2992   9.6134   9.7670  13.1915  13.7285
    13.9258  14.9131

          k = 0.3500 0.1500 0.2500 (  5080 PWs)   bands (ev):

   -46.2008 -22.4890 -22.4812 -22.4711  -6.6204  -6.0556  -5.9761  -5.0688
    -5.0420  -4.9861  -4.8912  -4.8729   3.3012   6.4535   6.6592   6.8578
     7.4300   7.9111   8.8736   9.2805   9.5803   9.7656  13.2255  13.6928
    13.8940  14.9108

          k =-0.1500 0.4500 0.2500 (  5077 PWs)   bands (ev):

   -46.2006 -22.5274 -22.4707 -22.4530  -6.5267  -6.0200  -5.9841  -5.0728
    -5.0394  -4.9731  -4.8980  -4.8592   3.2115   6.1354   6.5558   6.8584
     7.4264   8.0219   8.5792   9.3658   9.5395   9.8126  13.1553  13.9602
    14.1235  14.9903

          k = 0.4500 0.1500 0.2500 (  5077 PWs)   bands (ev):

   -46.2006 -22.4994 -22.4808 -22.4707  -6.5631  -6.0338  -5.9393  -5.0688
    -5.0352  -4.9697  -4.8909  -4.8750   3.2128   6.1767   6.5832   6.8451
     7.3867   7.9893   8.6709   9.3460   9.4986   9.8294  13.1898  13.9215
    14.0969  14.9774

          k = 0.3500 0.1500 0.3500 (  5081 PWs)   bands (ev):

   -46.2005 -22.4884 -22.4880 -22.4805  -6.5555  -6.0052  -5.9383  -5.0612
    -5.0326  -4.9658  -4.8946  -4.8257   3.2040   6.4280   6.4493   6.6408
     7.0304   7.8857   8.9131   9.1168   9.3741   9.9779  13.5139  13.7100
    14.0871  15.1874

          k =-0.1500 0.4500 0.3500 (  5079 PWs)   bands (ev):

   -46.2003 -22.5265 -22.4877 -22.4523  -6.4876  -5.9670  -5.9416  -5.0626
    -5.0228  -4.9576  -4.9161  -4.7732   3.1381   6.1068   6.4741   6.5574
     6.9771   7.9434   8.6736   9.1186   9.2242  10.0681  13.5582  13.9214
    14.2685  15.4693

          k = 0.4500 0.1500 0.3500 (  5079 PWs)   bands (ev):

   -46.2002 -22.4986 -22.4877 -22.4801  -6.5318  -5.9621  -5.9062  -5.0577
    -5.0198  -4.9522  -4.9051  -4.7950   3.1392   6.1544   6.4673   6.5535
     6.9281   7.9251   8.7349   9.1260   9.2114  10.1046  13.5833  13.8815
    14.2455  15.4579

          k = 0.4500 0.1500 0.4500 (  5073 PWs)   bands (ev):

   -46.2000 -22.4982 -22.4981 -22.4797  -6.5295  -5.8963  -5.8851  -5.0528
    -4.9969  -4.9397  -4.9261  -4.7471   3.0862   6.0427   6.3518   6.5950
     6.6534   7.9416   8.5435   9.0621   9.0806  10.2746  13.8459  13.8784
    14.3710  15.7691

          k =-0.2500 0.3500 0.2500 (  5072 PWs)   bands (ev):

   -46.2005 -22.5161 -22.4706 -22.4703  -6.4750  -6.0495  -6.0344  -5.0549
    -5.0377  -4.9378  -4.8506  -4.8303   3.3505   6.2661   6.3599   6.6199
     7.2614   7.3269   8.8947   9.5216   9.5829   9.7808  13.2787  13.7594
    13.9124  15.1644

          k =-0.2500 0.4500 0.2500 (  5073 PWs)   bands (ev):

   -46.2003 -22.5266 -22.4701 -22.4699  -6.4128  -6.0578  -5.9993  -5.0525
    -5.0273  -4.8951  -4.8590  -4.8180   3.3049   6.1358   6.1401   6.5105
     7.2254   7.3737   8.6416   9.4953   9.6159   9.8350  13.3094  13.9254
    14.1152  15.4542

          k = 0.3500 0.2500 0.3500 (  5057 PWs)   bands (ev):

   -46.2001 -22.4977 -22.4875 -22.4873  -6.4117  -6.0523  -5.9988  -5.0371
    -5.0222  -4.8876  -4.8168  -4.7949   3.3783   6.1179   6.1637   6.4305
     6.7757   7.2356   8.5001   9.6208   9.6219   9.9861  13.4896  13.8191
    14.0254  15.4950

          k =-0.2500 0.4500 0.3500 (  5063 PWs)   bands (ev):

   -46.1999 -22.5258 -22.4870 -22.4693  -6.3478  -6.0372  -6.0107  -5.0369
    -5.0051  -4.8543  -4.8273  -4.7424   3.3799   5.9549   6.1278   6.1818
     6.6903   7.2570   8.1249   9.5942   9.6886  10.0623  13.6126  13.9254
    14.2016  15.8608

          k = 0.4500 0.2500 0.3500 (  5063 PWs)   bands (ev):

   -46.1999 -22.4979 -22.4972 -22.4870  -6.3868  -6.0424  -5.9695  -5.0317
    -5.0074  -4.8445  -4.8165  -4.7638   3.3814   5.9847   6.1422   6.1593
     6.6790   7.2371   8.1356   9.6219   9.6547  10.1014  13.6432  13.8963
    14.1818  15.8587

          k = 0.4500 0.2500 0.4500 (  5070 PWs)   bands (ev):

   -46.1997 -22.4975 -22.4974 -22.4967  -6.3846  -5.9869  -5.9767  -5.0253
    -4.9900  -4.8129  -4.8030  -4.7173   3.4131   5.9678   6.0089   6.0485
     6.4027   7.2272   7.7004   9.6586   9.6593  10.2657  13.8735  13.9230
    14.2883  16.1954

          k =-0.3500 0.4500 0.3500 (  5056 PWs)   bands (ev):

   -46.1996 -22.5251 -22.4864 -22.4862  -6.2259  -6.0822  -6.0646  -5.0123
    -4.9940  -4.7723  -4.7364  -4.6976   3.6676   5.6322   5.8023   6.0767
     6.5916   6.7103   7.3528   9.9630   9.9698  10.0926  13.8180  14.0334
    14.1978  16.2697

          k = 0.4500 0.3500 0.4500 (  5051 PWs)   bands (ev):

   -46.1994 -22.5138 -22.4967 -22.4967  -6.2382  -6.0620  -6.0522  -4.9977
    -4.9873  -4.7038  -4.6908  -4.6776   3.8740   5.5602   5.5837   5.9710
     6.3978   6.6287   6.7729  10.0355  10.0403  10.2568  14.0348  14.0890
    14.2486  16.6454

     the Fermi energy is    10.4113 ev

!    total energy              =    -364.95625442 Ry
     Harris-Foulkes estimate   =    -364.95625442 Ry
     estimated scf accuracy    <          1.9E-11 Ry

     The total energy is the sum of the following terms:

     one-electron contribution =     -83.29498111 Ry
     hartree contribution      =      71.02097513 Ry
     xc contribution           =     -85.81080948 Ry
     ewald contribution        =    -266.87761381 Ry
     smearing contrib. (-TS)   =       0.00617486 Ry

     convergence has been achieved in   9 iterations

     Forces acting on atoms (cartesian axes, Ry/au):

     atom    1 type  1   force =     0.00000000    0.01074182    0.00000000
     atom    2 type  2   force =     0.00000000   -0.01074130    0.00000000
     atom    3 type  3   force =     0.00000000    0.00029070    0.00000000
     atom    4 type  3   force =     0.00000000   -0.00058191    0.00000000
     atom    5 type  3   force =     0.00000000    0.00029070    0.00000000

     Total force =     0.000712     Total SCF correction =     0.000009


     Computing stress (Cartesian axis) and pressure

          total   stress  (Ry/bohr**3)                   (kbar)     P=    6.52
   0.00001950   0.00000000   0.00000000          2.87      0.00      0.00
   0.00000000   0.00009396   0.00000000          0.00     13.82      0.00
   0.00000000   0.00000000   0.00001950          0.00      0.00      2.87


     bfgs converged in  10 scf cycles and   9 bfgs steps
     (criteria: energy <  1.0E-04 Ry, force <  1.0E-03 Ry/Bohr)

     End of BFGS Geometry Optimization

     Final energy   =    -364.9562544178 Ry
Begin final coordinates

ATOMIC_POSITIONS (crystal)
Pb       0.000000000   0.000000000   0.000000000    0   0   0
Ti       0.500000000   0.540000000   0.500000000    0   0   0
O        0.500000000   0.517201208   0.000000000
O        0.500000000   0.012865341   0.500000000
O        0.000000000   0.517201208   0.500000000
End final coordinates



     Writing output data file PbTiO3.save/
 
     init_run     :      9.58s CPU     10.27s WALL (       1 calls)
     electrons    :   1998.56s CPU   2097.35s WALL (      10 calls)
     update_pot   :      2.59s CPU      2.72s WALL (       9 calls)
     forces       :     25.27s CPU     30.62s WALL (      10 calls)
     stress       :    110.32s CPU    124.47s WALL (      10 calls)

     Called by init_run:
     wfcinit      :      7.22s CPU      7.31s WALL (       1 calls)
     potinit      :      0.23s CPU      0.26s WALL (       1 calls)
     hinit0       :      1.31s CPU      1.34s WALL (       1 calls)

     Called by electrons:
     c_bands      :   1572.15s CPU   1584.21s WALL (      91 calls)
     sum_band     :    341.90s CPU    383.24s WALL (      91 calls)
     v_of_rho     :     19.68s CPU     20.73s WALL (      96 calls)
     newd         :     72.32s CPU    120.90s WALL (      96 calls)
     mix_rho      :      1.17s CPU      1.29s WALL (      91 calls)

     Called by c_bands:
     init_us_2    :     45.69s CPU     45.95s WALL (   15225 calls)
     cegterg      :   1445.10s CPU   1456.52s WALL (    6825 calls)

     Called by sum_band:
     sum_band:bec :      0.12s CPU      0.12s WALL (    6825 calls)
     addusdens    :     81.28s CPU    121.30s WALL (      91 calls)

     Called by *egterg:
     h_psi        :   1214.80s CPU   1217.78s WALL (   29474 calls)
     s_psi        :     38.18s CPU     38.38s WALL (   29474 calls)
     g_psi        :     13.82s CPU     13.88s WALL (   22574 calls)
     cdiaghg      :     39.74s CPU     46.66s WALL (   28349 calls)

     Called by h_psi:
     h_psi:pot    :   1210.02s CPU   1212.78s WALL (   29474 calls)
     h_psi:calbec :     37.85s CPU     37.96s WALL (   29474 calls)
     vloc_psi     :   1133.68s CPU   1136.28s WALL (   29474 calls)
     add_vuspsi   :     38.32s CPU     38.41s WALL (   29474 calls)

     General routines
     calbec       :     57.74s CPU     57.90s WALL (   40049 calls)
     fft          :      5.03s CPU      5.06s WALL (    1492 calls)
     ffts         :      0.20s CPU      0.21s WALL (     187 calls)
     fftw         :   1224.74s CPU   1227.59s WALL ( 1132020 calls)
     interpolate  :      0.53s CPU      0.59s WALL (      96 calls)
 
     Parallel routines
 
     PWSCF        :  35m54.32s CPU  38m 0.56s WALL

 
   This run was terminated on:  15:57:45  13May2020            

=------------------------------------------------------------------------------=
   JOB DONE.
=------------------------------------------------------------------------------=
