
     Program PWSCF v.6.4.1 starts on 16May2020 at 15:30:54 

     This program is part of the open-source Quantum ESPRESSO suite
     for quantum simulation of materials; please cite
         "P. Giannozzi et al., J. Phys.:Condens. Matter 21 395502 (2009);
         "P. Giannozzi et al., J. Phys.:Condens. Matter 29 465901 (2017);
          URL http://www.quantum-espresso.org", 
     in publications or presentations arising from this work. More details at
     http://www.quantum-espresso.org/quote

     Parallel version (MPI), running on     1 processors

     MPI processes distributed on     1 nodes
     Reading input from PTO_vc_z_7.37_10.pw.in

     Current dimensions of program PWSCF are:
     Max number of different atomic species (ntypx) = 10
     Max number of k-points (npk) =  40000
     Max angular momentum in pseudopotentials (lmaxx) =  3
     Message from routine read_upf::
     Pseudo file Pb.pbe-dn-rrkjus_psl.0.2.2.UPF has been fixed on the fly.
To avoid this message in the future, permanently fix 
 your pseudo files following these instructions: 
https://gitlab.com/QEF/q-e/blob/master/upftools/how_to_fix_upf.md
     Message from routine read_upf::
     Pseudo file O.pbe-n-rrkjus_psl.0.1.UPF has been fixed on the fly.
To avoid this message in the future, permanently fix 
 your pseudo files following these instructions: 
https://gitlab.com/QEF/q-e/blob/master/upftools/how_to_fix_upf.md
               file Pb.pbe-dn-rrkjus_psl.0.2.2.UPF: wavefunction(s)  6S renormalized

     Subspace diagonalization in iterative solution of the eigenvalue problem:
     a serial algorithm will be used


     G-vector sticks info
     --------------------
     sticks:   dense  smooth     PW     G-vecs:    dense   smooth      PW
     Sum        3457    1369    401               152835    38641    6031



     bravais-lattice index     =            1
     lattice parameter (alat)  =       7.3700  a.u.
     unit-cell volume          =     400.3156 (a.u.)^3
     number of atoms/cell      =            5
     number of atomic types    =            3
     number of electrons       =        44.00
     number of Kohn-Sham states=           26
     kinetic-energy cutoff     =      80.0000  Ry
     charge density cutoff     =     800.0000  Ry
     convergence threshold     =      1.0E-08
     mixing beta               =       0.7000
     number of iterations used =            8  plain     mixing
     Exchange-correlation      = PBE ( 1  4  3  4 0 0)
     nstep                     =           50


     celldm(1)=   7.370000  celldm(2)=   0.000000  celldm(3)=   0.000000
     celldm(4)=   0.000000  celldm(5)=   0.000000  celldm(6)=   0.000000

     crystal axes: (cart. coord. in units of alat)
               a(1) = (   1.000000   0.000000   0.000000 )  
               a(2) = (   0.000000   1.000000   0.000000 )  
               a(3) = (   0.000000   0.000000   1.000000 )  

     reciprocal axes: (cart. coord. in units 2 pi/alat)
               b(1) = (  1.000000  0.000000  0.000000 )  
               b(2) = (  0.000000  1.000000  0.000000 )  
               b(3) = (  0.000000  0.000000  1.000000 )  


     PseudoPot. # 1 for Pb read from file:
     ./Pb.pbe-dn-rrkjus_psl.0.2.2.UPF
     MD5 check sum: 7afc420059c37d6888fc09c0f121e83f
     Pseudo is Ultrasoft + core correction, Zval = 14.0
     Generated using "atomic" code by A. Dal Corso v.5.0.2 svn rev. 9415
     Using radial grid of 1281 points,  6 beta functions with: 
                l(1) =   0
                l(2) =   0
                l(3) =   1
                l(4) =   1
                l(5) =   2
                l(6) =   2
     Q(r) pseudized with 0 coefficients 


     PseudoPot. # 2 for Ti read from file:
     ./Ti.pbe-sp-van_ak.UPF
     MD5 check sum: 8e4df49b7f0d34bbd5052bf3f5ea0213
     Pseudo is Ultrasoft, Zval = 12.0
     Generated by new atomic code, or converted to UPF format
     Using radial grid of  851 points,  6 beta functions with: 
                l(1) =   0
                l(2) =   0
                l(3) =   1
                l(4) =   1
                l(5) =   2
                l(6) =   2
     Q(r) pseudized with  8 coefficients,  rinner =    1.000   1.000   1.000
                                                       1.000   1.000

     PseudoPot. # 3 for O  read from file:
     ./O.pbe-n-rrkjus_psl.0.1.UPF
     MD5 check sum: e057bbcf3229fb5d8c36c0c92f9568b4
     Pseudo is Ultrasoft + core correction, Zval =  6.0
     Generated using "atomic" code by A. Dal Corso v.5.0.2 svn rev. 9415
     Using radial grid of 1095 points,  4 beta functions with: 
                l(1) =   0
                l(2) =   0
                l(3) =   1
                l(4) =   1
     Q(r) pseudized with 0 coefficients 


     atomic species   valence    mass     pseudopotential
        Pb            14.00   207.20000     Pb( 1.00)
        Ti            12.00    47.87000     Ti( 1.00)
        O              6.00    16.00000     O ( 1.00)

      8 Sym. Ops. (no inversion) found



   Cartesian axes

     site n.     atom                  positions (alat units)
         1           Pb  tau(   1) = (   0.0000000   0.0000000   0.0000000  )
         2           Ti  tau(   2) = (   0.5000000   0.5000000   0.5480000  )
         3           O   tau(   3) = (   0.5000000   0.5000000   0.0000000  )
         4           O   tau(   4) = (   0.5000000   0.0000000   0.5000000  )
         5           O   tau(   5) = (   0.0000000   0.5000000   0.5000000  )

     number of k points=    75  Marzari-Vanderbilt smearing, width (Ry)=  0.0250
                       cart. coord. in units 2pi/alat
        k(    1) = (   0.0500000   0.0500000   0.0500000), wk =   0.0160000
        k(    2) = (   0.0500000   0.0500000   0.1500000), wk =   0.0160000
        k(    3) = (   0.0500000   0.0500000   0.2500000), wk =   0.0160000
        k(    4) = (   0.0500000   0.0500000   0.3500000), wk =   0.0160000
        k(    5) = (   0.0500000   0.0500000   0.4500000), wk =   0.0160000
        k(    6) = (   0.0500000   0.1500000   0.1500000), wk =   0.0320000
        k(    7) = (   0.0500000   0.1500000   0.2500000), wk =   0.0320000
        k(    8) = (   0.0500000   0.1500000   0.3500000), wk =   0.0320000
        k(    9) = (   0.0500000   0.1500000   0.4500000), wk =   0.0320000
        k(   10) = (   0.0500000   0.2500000   0.2500000), wk =   0.0320000
        k(   11) = (   0.0500000   0.2500000   0.3500000), wk =   0.0320000
        k(   12) = (   0.0500000   0.2500000   0.4500000), wk =   0.0320000
        k(   13) = (   0.0500000   0.3500000   0.3500000), wk =   0.0320000
        k(   14) = (   0.0500000   0.3500000   0.4500000), wk =   0.0320000
        k(   15) = (   0.0500000   0.4500000   0.4500000), wk =   0.0320000
        k(   16) = (   0.1500000   0.1500000   0.1500000), wk =   0.0160000
        k(   17) = (   0.1500000   0.1500000   0.2500000), wk =   0.0160000
        k(   18) = (   0.1500000   0.1500000   0.3500000), wk =   0.0160000
        k(   19) = (   0.1500000   0.1500000   0.4500000), wk =   0.0160000
        k(   20) = (   0.1500000   0.2500000   0.2500000), wk =   0.0320000
        k(   21) = (   0.1500000   0.2500000   0.3500000), wk =   0.0320000
        k(   22) = (   0.1500000   0.2500000   0.4500000), wk =   0.0320000
        k(   23) = (   0.1500000   0.3500000   0.3500000), wk =   0.0320000
        k(   24) = (   0.1500000   0.3500000   0.4500000), wk =   0.0320000
        k(   25) = (   0.1500000   0.4500000   0.4500000), wk =   0.0320000
        k(   26) = (   0.2500000   0.2500000   0.2500000), wk =   0.0160000
        k(   27) = (   0.2500000   0.2500000   0.3500000), wk =   0.0160000
        k(   28) = (   0.2500000   0.2500000   0.4500000), wk =   0.0160000
        k(   29) = (   0.2500000   0.3500000   0.3500000), wk =   0.0320000
        k(   30) = (   0.2500000   0.3500000   0.4500000), wk =   0.0320000
        k(   31) = (   0.2500000   0.4500000   0.4500000), wk =   0.0320000
        k(   32) = (   0.3500000   0.3500000   0.3500000), wk =   0.0160000
        k(   33) = (   0.3500000   0.3500000   0.4500000), wk =   0.0160000
        k(   34) = (   0.3500000   0.4500000   0.4500000), wk =   0.0320000
        k(   35) = (   0.4500000   0.4500000   0.4500000), wk =   0.0160000
        k(   36) = (   0.1500000  -0.0500000   0.0500000), wk =   0.0320000
        k(   37) = (   0.2500000  -0.0500000   0.0500000), wk =   0.0320000
        k(   38) = (   0.3500000  -0.0500000   0.0500000), wk =   0.0320000
        k(   39) = (   0.4500000  -0.0500000   0.0500000), wk =   0.0320000
        k(   40) = (   0.1500000  -0.1500000   0.0500000), wk =   0.0160000
        k(   41) = (   0.2500000  -0.1500000   0.0500000), wk =   0.0320000
        k(   42) = (  -0.0500000   0.2500000   0.1500000), wk =   0.0320000
        k(   43) = (   0.3500000  -0.1500000   0.0500000), wk =   0.0320000
        k(   44) = (  -0.0500000   0.3500000   0.1500000), wk =   0.0320000
        k(   45) = (   0.4500000  -0.1500000   0.0500000), wk =   0.0320000
        k(   46) = (  -0.0500000   0.4500000   0.1500000), wk =   0.0320000
        k(   47) = (   0.2500000  -0.2500000   0.0500000), wk =   0.0160000
        k(   48) = (   0.3500000  -0.2500000   0.0500000), wk =   0.0320000
        k(   49) = (  -0.0500000   0.3500000   0.2500000), wk =   0.0320000
        k(   50) = (   0.4500000  -0.2500000   0.0500000), wk =   0.0320000
        k(   51) = (  -0.0500000   0.4500000   0.2500000), wk =   0.0320000
        k(   52) = (   0.3500000  -0.3500000   0.0500000), wk =   0.0160000
        k(   53) = (   0.4500000  -0.3500000   0.0500000), wk =   0.0320000
        k(   54) = (  -0.0500000   0.4500000   0.3500000), wk =   0.0320000
        k(   55) = (   0.4500000  -0.4500000   0.0500000), wk =   0.0160000
        k(   56) = (   0.2500000  -0.1500000   0.1500000), wk =   0.0320000
        k(   57) = (   0.3500000  -0.1500000   0.1500000), wk =   0.0320000
        k(   58) = (   0.4500000  -0.1500000   0.1500000), wk =   0.0320000
        k(   59) = (   0.2500000  -0.2500000   0.1500000), wk =   0.0160000
        k(   60) = (   0.3500000  -0.2500000   0.1500000), wk =   0.0320000
        k(   61) = (  -0.1500000   0.3500000   0.2500000), wk =   0.0320000
        k(   62) = (   0.4500000  -0.2500000   0.1500000), wk =   0.0320000
        k(   63) = (  -0.1500000   0.4500000   0.2500000), wk =   0.0320000
        k(   64) = (   0.3500000  -0.3500000   0.1500000), wk =   0.0160000
        k(   65) = (   0.4500000  -0.3500000   0.1500000), wk =   0.0320000
        k(   66) = (  -0.1500000   0.4500000   0.3500000), wk =   0.0320000
        k(   67) = (   0.4500000  -0.4500000   0.1500000), wk =   0.0160000
        k(   68) = (   0.3500000  -0.2500000   0.2500000), wk =   0.0320000
        k(   69) = (   0.4500000  -0.2500000   0.2500000), wk =   0.0320000
        k(   70) = (   0.3500000  -0.3500000   0.2500000), wk =   0.0160000
        k(   71) = (   0.4500000  -0.3500000   0.2500000), wk =   0.0320000
        k(   72) = (  -0.2500000   0.4500000   0.3500000), wk =   0.0320000
        k(   73) = (   0.4500000  -0.4500000   0.2500000), wk =   0.0160000
        k(   74) = (   0.4500000  -0.3500000   0.3500000), wk =   0.0320000
        k(   75) = (   0.4500000  -0.4500000   0.3500000), wk =   0.0160000

     Dense  grid:   152835 G-vectors     FFT dimensions: (  72,  72,  72)

     Smooth grid:    38641 G-vectors     FFT dimensions: (  45,  45,  45)

     Estimated max dynamical RAM per process >     732.62 MB

     Check: negative core charge=   -0.000005

     Initial potential from superposition of free atoms

     starting charge   42.99760, renormalised to   44.00000
     Starting wfcs are   31 randomized atomic wfcs

     total cpu time spent up to now is       37.2 secs

     Self-consistent Calculation

     iteration #  1     ecut=    80.00 Ry     beta= 0.70
     Davidson diagonalization with overlap
     ethr =  1.00E-02,  avg # of iterations =  2.0

     total cpu time spent up to now is       66.8 secs

     total energy              =    -364.41345173 Ry
     Harris-Foulkes estimate   =    -365.28005029 Ry
     estimated scf accuracy    <       1.09009368 Ry

     iteration #  2     ecut=    80.00 Ry     beta= 0.70
     Davidson diagonalization with overlap
     ethr =  2.48E-03,  avg # of iterations =  4.1

     total cpu time spent up to now is      110.3 secs

     total energy              =    -363.73015431 Ry
     Harris-Foulkes estimate   =    -365.60833366 Ry
     estimated scf accuracy    <       6.00626783 Ry

     iteration #  3     ecut=    80.00 Ry     beta= 0.70
     Davidson diagonalization with overlap
     ethr =  2.48E-03,  avg # of iterations =  4.7

     total cpu time spent up to now is      153.0 secs

     total energy              =    -364.91922404 Ry
     Harris-Foulkes estimate   =    -365.06857575 Ry
     estimated scf accuracy    <       0.40246397 Ry

     iteration #  4     ecut=    80.00 Ry     beta= 0.70
     Davidson diagonalization with overlap
     ethr =  9.15E-04,  avg # of iterations =  3.6

     total cpu time spent up to now is      183.1 secs

     total energy              =    -364.91571644 Ry
     Harris-Foulkes estimate   =    -364.95103199 Ry
     estimated scf accuracy    <       0.10839988 Ry

     iteration #  5     ecut=    80.00 Ry     beta= 0.70
     Davidson diagonalization with overlap
     ethr =  2.46E-04,  avg # of iterations =  4.1

     total cpu time spent up to now is      221.1 secs

     total energy              =    -364.94479902 Ry
     Harris-Foulkes estimate   =    -364.94570278 Ry
     estimated scf accuracy    <       0.00377052 Ry

     iteration #  6     ecut=    80.00 Ry     beta= 0.70
     Davidson diagonalization with overlap
     ethr =  8.57E-06,  avg # of iterations =  4.1

     total cpu time spent up to now is      258.8 secs

     total energy              =    -364.94514172 Ry
     Harris-Foulkes estimate   =    -364.94585402 Ry
     estimated scf accuracy    <       0.00308362 Ry

     iteration #  7     ecut=    80.00 Ry     beta= 0.70
     Davidson diagonalization with overlap
     ethr =  7.01E-06,  avg # of iterations =  2.1

     total cpu time spent up to now is      286.6 secs

     total energy              =    -364.94512162 Ry
     Harris-Foulkes estimate   =    -364.94536990 Ry
     estimated scf accuracy    <       0.00056405 Ry

     iteration #  8     ecut=    80.00 Ry     beta= 0.70
     Davidson diagonalization with overlap
     ethr =  1.28E-06,  avg # of iterations =  3.8

     total cpu time spent up to now is      322.7 secs

     total energy              =    -364.94530161 Ry
     Harris-Foulkes estimate   =    -364.94533588 Ry
     estimated scf accuracy    <       0.00012092 Ry

     iteration #  9     ecut=    80.00 Ry     beta= 0.70
     Davidson diagonalization with overlap
     ethr =  2.75E-07,  avg # of iterations =  2.4

     total cpu time spent up to now is      350.5 secs

     total energy              =    -364.94531032 Ry
     Harris-Foulkes estimate   =    -364.94531338 Ry
     estimated scf accuracy    <       0.00000987 Ry

     iteration # 10     ecut=    80.00 Ry     beta= 0.70
     Davidson diagonalization with overlap
     ethr =  2.24E-08,  avg # of iterations =  3.7

     total cpu time spent up to now is      387.1 secs

     total energy              =    -364.94531455 Ry
     Harris-Foulkes estimate   =    -364.94531462 Ry
     estimated scf accuracy    <       0.00000050 Ry

     iteration # 11     ecut=    80.00 Ry     beta= 0.70
     Davidson diagonalization with overlap
     ethr =  1.13E-09,  avg # of iterations =  2.8

     total cpu time spent up to now is      419.4 secs

     total energy              =    -364.94531455 Ry
     Harris-Foulkes estimate   =    -364.94531463 Ry
     estimated scf accuracy    <       0.00000022 Ry

     iteration # 12     ecut=    80.00 Ry     beta= 0.70
     Davidson diagonalization with overlap
     ethr =  5.03E-10,  avg # of iterations =  3.0

     total cpu time spent up to now is      450.3 secs

     End of self-consistent calculation

          k = 0.0500 0.0500 0.0500 (  4855 PWs)   bands (ev):

   -45.1037 -21.5104 -21.3790 -21.3789  -6.7027  -5.6237  -5.5041  -4.2145
    -4.1943  -4.1939  -4.0550  -4.0428   5.3107   7.4189   7.4740   7.6552
     9.3978   9.4219   9.8259   9.9965  10.2675  10.2722  13.3900  13.9058
    13.9146  15.8330

          k = 0.0500 0.0500 0.1500 (  4845 PWs)   bands (ev):

   -45.1034 -21.5243 -21.3785 -21.3784  -6.5971  -5.5929  -5.4679  -4.2138
    -4.2056  -4.2024  -4.0815  -4.0483   4.9406   7.4628   7.4702   7.9000
     9.2157   9.2368   9.8136   9.8381  10.2907  10.3023  13.3914  14.1708
    14.1887  15.8352

          k = 0.0500 0.0500 0.2500 (  4839 PWs)   bands (ev):

   -45.1029 -21.5467 -21.3776 -21.3775  -6.4176  -5.5461  -5.4043  -4.2270
    -4.2151  -4.2124  -4.1460  -4.0392   4.4952   7.4657   7.5330   7.7848
     8.9785   8.9882   9.7637   9.9759  10.3541  10.4466  13.3934  14.5833
    14.6093  15.8391

          k = 0.0500 0.0500 0.3500 (  4837 PWs)   bands (ev):

   -45.1025 -21.5689 -21.3767 -21.3767  -6.2238  -5.5061  -5.3326  -4.2646
    -4.2259  -4.2115  -4.2025  -4.0324   4.1510   7.0943   7.6011   7.7641
     8.7662   8.7809   9.7024  10.2078  10.4098  10.9010  13.3944  14.9834
    15.0133  15.3375

          k = 0.0500 0.0500 0.4500 (  4849 PWs)   bands (ev):

   -45.1022 -21.5825 -21.3762 -21.3762  -6.0931  -5.4881  -5.2825  -4.3068
    -4.2320  -4.2242  -4.2108  -4.0294   3.9726   6.7600   7.6415   7.8300
     8.6270   8.6729   9.6625  10.2935  10.4466  11.4196  13.3918  14.5480
    15.2263  15.2639

          k = 0.0500 0.1500 0.1500 (  4852 PWs)   bands (ev):

   -45.1031 -21.5237 -21.3920 -21.3779  -6.5090  -5.5579  -5.4385  -4.2245
    -4.2175  -4.2022  -4.0793  -4.0592   4.6878   7.4350   7.5340   8.0809
     8.9710   9.1905   9.6525   9.8976  10.0749  10.3562  13.7321  14.1815
    14.2532  16.1581

          k = 0.0500 0.1500 0.2500 (  4839 PWs)   bands (ev):

   -45.1026 -21.5460 -21.3911 -21.3771  -6.3347  -5.5147  -5.3858  -4.2423
    -4.2226  -4.2124  -4.1067  -4.0555   4.3304   7.3374   7.5782   7.9693
     8.7141   8.9682   9.5626   9.9359  10.1312  10.5993  13.7297  14.5888
    14.6406  16.1761

          k = 0.0500 0.1500 0.3500 (  4849 PWs)   bands (ev):

   -45.1022 -21.5682 -21.3902 -21.3762  -6.1508  -5.4740  -5.3279  -4.2720
    -4.2235  -4.2194  -4.1380  -4.0487   4.0320   7.0292   7.5608   7.9018
     8.5203   8.7842   9.6579   9.9274  10.1937  10.9595  13.7206  14.9760
    15.0188  15.5268

          k = 0.0500 0.1500 0.4500 (  4848 PWs)   bands (ev):

   -45.1019 -21.5818 -21.3896 -21.3757  -6.0312  -5.4499  -5.2894  -4.2967
    -4.2289  -4.2204  -4.1488  -4.0487   3.8709   6.7257   7.5416   7.9744
     8.3979   8.6727   9.7553   9.9056  10.2334  11.2392  13.7050  14.9547
    15.2337  15.2860

          k = 0.0500 0.2500 0.2500 (  4846 PWs)   bands (ev):

   -45.1022 -21.5450 -21.4128 -21.3762  -6.2032  -5.4721  -5.3381  -4.2513
    -4.2337  -4.2120  -4.0804  -4.0637   4.0857   7.2543   7.6829   7.8625
     8.6254   8.7490   9.2582   9.8044  10.1390  10.7254  14.2094  14.6012
    14.8317  16.0604

          k = 0.0500 0.2500 0.3500 (  4848 PWs)   bands (ev):

   -45.1017 -21.5671 -21.4118 -21.3753  -6.0471  -5.4306  -5.2843  -4.2644
    -4.2355  -4.2189  -4.0915  -4.0412   3.8466   6.9573   7.5994   7.7820
     8.4285   8.6710   9.1676   9.8445  10.2200  10.8612  14.1942  14.9997
    15.1118  15.8295

          k = 0.0500 0.2500 0.4500 (  4839 PWs)   bands (ev):

   -45.1014 -21.5806 -21.4112 -21.3748  -5.9582  -5.3874  -5.2535  -4.2788
    -4.2347  -4.2268  -4.0866  -4.0341   3.7106   6.6752   7.5451   7.7766
     8.3595   8.6232   9.1925   9.8835  10.2093  10.9231  14.1809  15.2433
    15.2707  15.7103

          k = 0.0500 0.3500 0.3500 (  4836 PWs)   bands (ev):

   -45.1013 -21.5660 -21.4333 -21.3745  -5.9693  -5.3838  -5.2018  -4.2611
    -4.2428  -4.2186  -4.1118  -3.9757   3.6722   6.8951   7.3217   7.8451
     8.2691   8.6071   9.0324   9.5707  10.3506  10.7160  14.6262  14.9974
    15.3073  16.0736

          k = 0.0500 0.3500 0.4500 (  4827 PWs)   bands (ev):

   -45.1010 -21.5794 -21.4326 -21.3739  -5.9235  -5.3185  -5.1619  -4.2672
    -4.2436  -4.2249  -4.1221  -3.9361   3.5571   6.6305   7.2752   7.7641
     8.2859   8.5611   9.0022   9.5792  10.1744  10.8239  14.6153  15.2499
    15.4524  16.2895

          k = 0.0500 0.4500 0.4500 (  4821 PWs)   bands (ev):

   -45.1007 -21.5787 -21.4458 -21.3734  -5.9186  -5.2702  -5.0824  -4.2651
    -4.2476  -4.2240  -4.1431  -3.8795   3.4663   6.5904   7.0303   7.8839
     8.0500   8.6922   8.9960   9.3937   9.9065  10.9340  14.8592  15.2486
    15.5995  16.5240

          k = 0.1500 0.1500 0.1500 (  4842 PWs)   bands (ev):

   -45.1028 -21.5232 -21.3917 -21.3913  -6.4242  -5.5293  -5.4102  -4.2350
    -4.2239  -4.2028  -4.0727  -4.0614   4.5171   7.3833   7.4552   8.2027
     8.8240   8.9892   9.6081   9.9654  10.1496  10.2475  13.9754  14.2325
    14.2691  16.6682

          k = 0.1500 0.1500 0.2500 (  4842 PWs)   bands (ev):

   -45.1024 -21.5454 -21.3907 -21.3904  -6.2522  -5.4898  -5.3745  -4.2511
    -4.2333  -4.1986  -4.0792  -4.0561   4.2378   7.3008   7.3340   8.0225
     8.6487   8.8097   9.4467  10.0247  10.2081  10.4997  13.9432  14.5887
    14.6434  16.1873

          k = 0.1500 0.1500 0.3500 (  4844 PWs)   bands (ev):

   -45.1019 -21.5675 -21.3897 -21.3895  -6.0733  -5.4505  -5.3372  -4.2737
    -4.2293  -4.1855  -4.1034  -4.0494   3.9843   7.0338   7.2028   7.8721
     8.5454   8.7708   9.3185  10.0412  10.2598  10.8137  13.8749  14.9608
    14.9809  15.6859

          k = 0.1500 0.1500 0.4500 (  4853 PWs)   bands (ev):

   -45.1016 -21.5811 -21.3892 -21.3890  -5.9593  -5.4260  -5.3133  -4.2851
    -4.2266  -4.1701  -4.1217  -4.0523   3.8411   6.7310   7.1367   7.9131
     8.5047   8.7190   9.2947  10.0385  10.2914  10.9741  13.8131  15.1851
    15.1996  15.4707

          k = 0.1500 0.2500 0.2500 (  4844 PWs)   bands (ev):

   -45.1019 -21.5444 -21.4122 -21.3897  -6.1228  -5.4589  -5.3384  -4.2550
    -4.2366  -4.1863  -4.0605  -4.0441   4.0771   7.1618   7.2800   7.8261
     8.3169   8.6698   9.5565   9.9781  10.1869  10.5608  14.2449  14.5868
    14.7787  15.9553

          k = 0.1500 0.2500 0.3500 (  4837 PWs)   bands (ev):

   -45.1014 -21.5665 -21.4112 -21.3888  -5.9622  -5.4262  -5.3150  -4.2626
    -4.2319  -4.1643  -4.0624  -4.0256   3.8907   6.9193   7.1324   7.5609
     8.2039   8.6810   9.3341  10.0745  10.2726  10.6214  14.1728  14.9157
    15.0476  15.9541

          k = 0.1500 0.2500 0.4500 (  4841 PWs)   bands (ev):

   -45.1012 -21.5800 -21.4106 -21.3882  -5.8703  -5.3910  -5.3040  -4.2657
    -4.2268  -4.1457  -4.0671  -4.0189   3.7770   6.6775   6.9862   7.5398
     8.1986   8.7505   9.1633  10.1269  10.2628  10.6154  14.1508  15.1502
    15.2509  16.0406

          k = 0.1500 0.3500 0.3500 (  4837 PWs)   bands (ev):

   -45.1010 -21.5654 -21.4327 -21.3879  -5.8788  -5.4104  -5.2455  -4.2543
    -4.2168  -4.1542  -4.0701  -3.9594   3.7825   6.8303   7.1380   7.2918
     7.6859   8.7055   9.4874   9.8214  10.1715  10.6260  14.5231  14.8985
    15.2151  16.2424

          k = 0.1500 0.3500 0.4500 (  4835 PWs)   bands (ev):

   -45.1007 -21.5788 -21.4321 -21.3873  -5.8274  -5.3569  -5.2314  -4.2527
    -4.2069  -4.1316  -4.0890  -3.9194   3.6964   6.5961   7.0605   7.1839
     7.6606   8.7331   9.3083   9.8587   9.9807  10.7486  14.5653  15.1235
    15.3644  16.5453

          k = 0.1500 0.4500 0.4500 (  4825 PWs)   bands (ev):

   -45.1004 -21.5781 -21.4452 -21.3868  -5.8222  -5.3338  -5.1606  -4.2460
    -4.1735  -4.1392  -4.1034  -3.8618   3.6402   6.5555   6.9790   7.1839
     7.3101   8.7855   9.2877   9.5976   9.8235  10.9083  14.8456  15.1117
    15.4811  16.8169

          k = 0.2500 0.2500 0.2500 (  4842 PWs)   bands (ev):

   -45.1014 -21.5435 -21.4116 -21.4111  -6.0026  -5.4363  -5.3275  -4.2418
    -4.2375  -4.1537  -4.0367  -4.0150   4.0385   6.9333   7.0409   7.6674
     8.1080   8.2261   9.7862  10.2169  10.2870  10.3544  14.2342  14.7460
    14.7527  15.9908

          k = 0.2500 0.2500 0.3500 (  4841 PWs)   bands (ev):

   -45.1010 -21.5654 -21.4105 -21.4102  -5.8380  -5.4202  -5.3413  -4.2429
    -4.2200  -4.1113  -4.0171  -3.9882   3.9456   6.6751   6.9120   7.2614
     8.0545   8.1021   9.5486  10.2830  10.3511  10.4211  14.2409  14.9046
    15.0457  16.2214

          k = 0.2500 0.2500 0.4500 (  4829 PWs)   bands (ev):

   -45.1007 -21.5789 -21.4099 -21.4096  -5.7456  -5.3975  -5.3500  -4.2406
    -4.2093  -4.0638  -4.0245  -3.9744   3.8757   6.5260   6.7179   7.1417
     8.0382   8.1216   9.3276  10.2183  10.3802  10.4789  14.3121  15.0645
    15.2604  16.5144

          k = 0.2500 0.3500 0.3500 (  4833 PWs)   bands (ev):

   -45.1005 -21.5644 -21.4318 -21.4094  -5.7455  -5.4351  -5.3058  -4.2257
    -4.1954  -4.0709  -3.9918  -3.9280   3.9726   6.5247   6.7040   7.0843
     7.4925   8.0686   9.2557  10.2192  10.4300  10.6072  14.4802  14.9521
    15.1653  16.5618

          k = 0.2500 0.3500 0.4500 (  4825 PWs)   bands (ev):

   -45.1002 -21.5779 -21.4312 -21.4089  -5.6740  -5.4111  -5.3210  -4.2211
    -4.1786  -4.0333  -3.9863  -3.8864   3.9532   6.3439   6.7076   6.8052
     7.4338   8.0528   8.8730  10.2084  10.4685  10.7138  14.6351  15.0742
    15.3234  16.9296

          k = 0.2500 0.4500 0.4500 (  4833 PWs)   bands (ev):

   -45.1000 -21.5772 -21.4443 -21.4083  -5.6656  -5.4195  -5.2619  -4.2122
    -4.1524  -4.0206  -3.9642  -3.8281   3.9847   6.3314   6.5993   6.7154
     7.0851   8.0720   8.4126  10.2261  10.4640  10.8861  14.9108  15.0829
    15.4158  17.2575

          k = 0.3500 0.3500 0.3500 (  4848 PWs)   bands (ev):

   -45.1001 -21.5634 -21.4310 -21.4307  -5.6609  -5.4205  -5.3416  -4.1958
    -4.1807  -3.9911  -3.9174  -3.8884   4.1721   6.2411   6.3572   6.9568
     7.4589   7.5003   8.5891  10.5046  10.6027  10.7612  14.6615  15.1388
    15.1429  16.9493

          k = 0.3500 0.3500 0.4500 (  4819 PWs)   bands (ev):

   -45.0998 -21.5769 -21.4303 -21.4302  -5.5473  -5.4508  -5.3750  -4.1918
    -4.1609  -3.9537  -3.8798  -3.8377   4.2615   6.0360   6.3572   6.6832
     7.3158   7.4947   8.0685  10.5940  10.7333  10.7665  14.8651  15.1650
    15.3254  17.3411

          k = 0.3500 0.4500 0.4500 (  4813 PWs)   bands (ev):

   -45.0995 -21.5762 -21.4434 -21.4297  -5.5286  -5.4713  -5.3449  -4.1787
    -4.1472  -3.9032  -3.8356  -3.7868   4.4806   5.9615   6.1323   6.6139
     7.0608   7.3963   7.4790  10.6590  10.8601  10.8855  15.0992  15.2142
    15.3883  17.7152

          k = 0.4500 0.4500 0.4500 (  4800 PWs)   bands (ev):

   -45.0992 -21.5756 -21.4429 -21.4428  -5.5443  -5.4023  -5.3862  -4.1600
    -4.1428  -3.8329  -3.7625  -3.7562   5.0166   5.7701   5.8640   6.5308
     6.6023   7.0379   7.1581  10.8524  10.8652  11.0568  15.2894  15.3663
    15.3672  18.0851

          k = 0.1500-0.0500 0.0500 (  4845 PWs)   bands (ev):

   -45.1034 -21.5098 -21.3926 -21.3785  -6.6128  -5.5859  -5.4685  -4.2241
    -4.2041  -4.1935  -4.0891  -4.0389   4.9505   7.4794   7.5613   7.8773
     9.1953   9.3601   9.7979   9.8722  10.1124  10.2624  13.7323  13.9148
    14.0080  16.0439

          k = 0.2500-0.0500 0.0500 (  4839 PWs)   bands (ev):

   -45.1029 -21.5090 -21.4144 -21.3776  -6.4632  -5.5196  -5.4110  -4.2402
    -4.2202  -4.1924  -4.1503  -4.0302   4.5244   7.5270   7.6620   7.8591
     9.0949   9.1665   9.7212   9.7868  10.0387  10.3446  13.9150  14.2312
    14.3531  16.0373

          k = 0.3500-0.0500 0.0500 (  4837 PWs)   bands (ev):

   -45.1025 -21.5081 -21.4362 -21.3768  -6.3079  -5.4436  -5.3562  -4.2641
    -4.2388  -4.2068  -4.1914  -4.0235   4.2013   7.1690   7.8344   7.9928
     8.8252   8.9477   9.6279   9.7196  10.1369  10.7890  13.9150  14.6841
    14.7820  15.2358

          k = 0.4500-0.0500 0.0500 (  4849 PWs)   bands (ev):

   -45.1022 -21.5076 -21.4496 -21.3763  -6.2087  -5.3868  -5.3276  -4.2955
    -4.2516  -4.2273  -4.1907  -4.0206   4.0369   6.8646   7.9988   8.2319
     8.5496   8.6837   9.5847   9.7142  10.1875  11.2902  13.8979  14.4765
    14.9525  15.0777

          k = 0.1500-0.1500 0.0500 (  4852 PWs)   bands (ev):

   -45.1031 -21.5093 -21.3922 -21.3918  -6.5274  -5.5540  -5.4315  -4.2342
    -4.2045  -4.2015  -4.0878  -4.0538   4.7011   7.4246   7.6277   8.0536
     8.9989   9.1414   9.7168   9.8769  10.1104  10.2903  13.9485  14.0207
    14.0444  16.4017

          k = 0.2500-0.1500 0.0500 (  4839 PWs)   bands (ev):

   -45.1026 -21.5085 -21.4138 -21.3911  -6.3885  -5.4960  -5.3714  -4.2483
    -4.2162  -4.2017  -4.1210  -4.0498   4.3634   7.4210   7.6850   7.9677
     8.7975   8.9023   9.6240   9.8970  10.1117  10.4256  13.9927  14.3321
    14.4301  16.3490

          k =-0.0500 0.2500 0.1500 (  4839 PWs)   bands (ev):

   -45.1026 -21.5228 -21.4138 -21.3771  -6.3640  -5.5011  -5.3867  -4.2453
    -4.2294  -4.2015  -4.1115  -4.0476   4.3490   7.4046   7.6560   7.9788
     8.8389   9.0302   9.5180   9.8177   9.9462  10.5469  14.1616  14.2480
    14.5376  16.1669

          k = 0.3500-0.1500 0.0500 (  4849 PWs)   bands (ev):

   -45.1022 -21.5076 -21.4355 -21.3903  -6.2500  -5.4244  -5.3139  -4.2669
    -4.2241  -4.2010  -4.1619  -4.0430   4.0846   7.1661   7.6857   8.0268
     8.5502   8.8911   9.3219   9.9339  10.1596  10.7950  13.9704  14.7436
    14.8345  15.4581

          k =-0.0500 0.3500 0.1500 (  4849 PWs)   bands (ev):

   -45.1022 -21.5219 -21.4355 -21.3763  -6.2160  -5.4445  -5.3281  -4.2685
    -4.2411  -4.2010  -4.1404  -4.0406   4.0710   7.1433   7.7657   7.9817
     8.5966   8.8672   9.4868   9.7854   9.9271  10.8475  14.1726  14.6769
    14.9092  15.4113

          k = 0.4500-0.1500 0.0500 (  4848 PWs)   bands (ev):

   -45.1019 -21.5071 -21.4489 -21.3898  -6.1656  -5.3665  -5.2844  -4.2843
    -4.2292  -4.2005  -4.1812  -4.0418   3.9362   6.8745   7.7604   8.1317
     8.4924   8.7096   9.2220   9.9161  10.1993  11.1149  13.9219  14.9286
    15.0117  15.1057

          k =-0.0500 0.4500 0.1500 (  4848 PWs)   bands (ev):

   -45.1019 -21.5213 -21.4488 -21.3758  -6.1232  -5.4096  -5.2876  -4.2859
    -4.2512  -4.2005  -4.1502  -4.0407   3.9238   6.8680   7.8521   8.1603
     8.4321   8.6031   9.5153   9.8430   9.8977  11.0906  14.1502  14.8855
    14.9463  15.1729

          k = 0.2500-0.2500 0.0500 (  4846 PWs)   bands (ev):

   -45.1022 -21.5076 -21.4132 -21.4125  -6.2749  -5.4439  -5.3062  -4.2486
    -4.2187  -4.2099  -4.0898  -4.0784   4.1200   7.3603   7.6718   7.9168
     8.4558   8.6115   9.6137   9.8000  10.3043  10.5130  14.2476  14.3933
    14.7134  16.1298

          k = 0.3500-0.2500 0.0500 (  4848 PWs)   bands (ev):

   -45.1017 -21.5068 -21.4345 -21.4119  -6.1744  -5.3659  -5.2423  -4.2544
    -4.2224  -4.2120  -4.1018  -4.0676   3.8987   7.1671   7.5277   7.8663
     8.2974   8.6080   9.3002   9.8585  10.3652  10.7057  14.2728  14.7493
    15.0110  15.7765

          k =-0.0500 0.3500 0.2500 (  4848 PWs)   bands (ev):

   -45.1017 -21.5440 -21.4344 -21.3754  -6.0784  -5.4351  -5.2679  -4.2625
    -4.2401  -4.2133  -4.0906  -4.0393   3.8669   7.0908   7.5945   7.8686
     8.3745   8.7430   9.1579   9.6180  10.2617  10.7596  14.5613  14.6773
    15.1057  15.7298

          k = 0.4500-0.2500 0.0500 (  4839 PWs)   bands (ev):

   -45.1014 -21.5062 -21.4478 -21.4113  -6.1209  -5.2952  -5.2098  -4.2643
    -4.2270  -4.2146  -4.0916  -4.0720   3.7735   6.8867   7.5938   7.7294
     8.3459   8.7155   8.9953   9.9331  10.3163  10.8486  14.2482  15.0239
    15.2154  15.5540

          k =-0.0500 0.4500 0.2500 (  4839 PWs)   bands (ev):

   -45.1014 -21.5434 -21.4477 -21.3749  -6.0071  -5.4097  -5.2153  -4.2699
    -4.2496  -4.2143  -4.0815  -4.0353   3.7444   6.8653   7.6103   7.8517
     8.2810   8.7203   9.1312   9.5901  10.2989  10.7369  14.5687  14.9151
    15.3149  15.5249

          k = 0.3500-0.3500 0.0500 (  4836 PWs)   bands (ev):

   -45.1013 -21.5059 -21.4336 -21.4332  -6.1237  -5.2678  -5.1683  -4.2476
    -4.2279  -4.2124  -4.1166  -4.0243   3.7193   7.1321   7.2232   7.8026
     7.9811   8.6578   9.2835   9.6170  10.4413  10.7475  14.6327  14.7939
    15.2097  16.0483

          k = 0.4500-0.3500 0.0500 (  4827 PWs)   bands (ev):

   -45.1010 -21.5053 -21.4467 -21.4328  -6.1041  -5.1805  -5.1279  -4.2505
    -4.2270  -4.2203  -4.1268  -3.9911   3.6127   6.8646   7.2484   7.6611
     7.9489   8.8304   9.0626   9.6013  10.2688  10.9116  14.6931  15.0207
    15.3538  16.1357

          k =-0.0500 0.4500 0.3500 (  4827 PWs)   bands (ev):

   -45.1010 -21.5653 -21.4465 -21.3740  -5.9366  -5.3453  -5.1359  -4.2624
    -4.2482  -4.2215  -4.1198  -3.9371   3.5707   6.7932   7.1529   7.9146
     8.0747   8.7797   8.9325   9.4509  10.2127  10.7486  14.8797  14.9919
    15.4841  16.1237

          k = 0.4500-0.4500 0.0500 (  4821 PWs)   bands (ev):

   -45.1007 -21.5048 -21.4460 -21.4459  -6.1042  -5.0895  -5.0743  -4.2492
    -4.2257  -4.2214  -4.1546  -3.9392   3.5149   6.7483   7.1111   7.6905
     7.7097   8.9773   9.1031   9.3666  10.0417  11.0917  14.9984  15.0294
    15.4385  16.4763

          k = 0.2500-0.1500 0.1500 (  4842 PWs)   bands (ev):

   -45.1024 -21.5223 -21.4132 -21.3906  -6.2874  -5.4820  -5.3603  -4.2526
    -4.2257  -4.1997  -4.0913  -4.0474   4.2586   7.3377   7.4268   8.0077
     8.6109   8.8275   9.6495   9.9176  10.0666  10.4528  14.1917  14.3804
    14.5313  16.1578

          k = 0.3500-0.1500 0.1500 (  4844 PWs)   bands (ev):

   -45.1019 -21.5213 -21.4349 -21.3897  -6.1525  -5.4334  -5.3030  -4.2676
    -4.2172  -4.1947  -4.1179  -4.0404   4.0260   7.1355   7.4079   7.8216
     8.4363   8.8792   9.4034   9.9576  10.0774  10.7117  14.1293  14.7269
    14.8982  15.6229

          k = 0.4500-0.1500 0.1500 (  4853 PWs)   bands (ev):

   -45.1016 -21.5208 -21.4482 -21.3892  -6.0714  -5.4030  -5.2620  -4.2733
    -4.2100  -4.1891  -4.1365  -4.0421   3.8964   6.8748   7.3846   7.8542
     8.3663   8.9871   9.1435  10.0289  10.0637  10.8512  14.0563  14.9588
    15.1554  15.3667

          k = 0.2500-0.2500 0.1500 (  4844 PWs)   bands (ev):

   -45.1019 -21.5214 -21.4126 -21.4120  -6.1713  -5.4421  -5.3142  -4.2502
    -4.2322  -4.1853  -4.0679  -4.0496   4.0996   7.2036   7.3238   7.8172
     8.2452   8.6400   9.7659   9.9269  10.3217  10.3597  14.3022  14.5078
    14.6819  15.9598

          k = 0.3500-0.2500 0.1500 (  4837 PWs)   bands (ev):

   -45.1014 -21.5205 -21.4338 -21.4113  -6.0702  -5.3887  -5.2610  -4.2520
    -4.2232  -4.1646  -4.0686  -4.0438   3.9346   7.0764   7.2184   7.4808
     8.0718   8.6472   9.6084   9.9484  10.2937  10.5517  14.2728  14.7433
    14.9747  15.9185

          k =-0.1500 0.3500 0.2500 (  4837 PWs)   bands (ev):

   -45.1014 -21.5434 -21.4338 -21.3888  -6.0025  -5.4403  -5.2751  -4.2585
    -4.2243  -4.1767  -4.0636  -4.0223   3.9129   7.0431   7.2208   7.5366
     8.0157   8.7289   9.6277   9.7688  10.2815  10.5539  14.3817  14.7059
    15.0396  15.9154

          k = 0.4500-0.2500 0.1500 (  4841 PWs)   bands (ev):

   -45.1012 -21.5199 -21.4471 -21.4108  -6.0174  -5.3499  -5.2207  -4.2513
    -4.2151  -4.1471  -4.0687  -4.0489   3.8341   6.8794   7.1051   7.4158
     8.0480   8.7107   9.4183  10.0097  10.2103  10.6335  14.2558  14.9498
    15.2013  15.9480

          k =-0.1500 0.4500 0.2500 (  4841 PWs)   bands (ev):

   -45.1012 -21.5428 -21.4471 -21.3883  -5.9351  -5.4316  -5.2229  -4.2569
    -4.2127  -4.1756  -4.0551  -4.0212   3.8138   6.8618   7.1731   7.4222
     7.9409   8.8299   9.4338   9.8540  10.2740  10.4911  14.3970  14.8945
    15.2552  15.9435

          k = 0.3500-0.3500 0.1500 (  4837 PWs)   bands (ev):

   -45.1010 -21.5196 -21.4330 -21.4326  -6.0174  -5.3085  -5.2155  -4.2409
    -4.2145  -4.1415  -4.0626  -4.0076   3.8248   7.0273   7.0586   7.2267
     7.6497   8.6392   9.6867   9.8051  10.1024  10.7500  14.5129  14.8052
    15.1428  16.2198

          k = 0.4500-0.3500 0.1500 (  4835 PWs)   bands (ev):

   -45.1007 -21.5190 -21.4460 -21.4322  -5.9989  -5.2482  -5.1797  -4.2363
    -4.2001  -4.1282  -4.0737  -3.9759   3.7507   6.8513   7.0216   7.0911
     7.5347   8.6817   9.5455   9.8263   9.8986  10.8957  14.6354  14.9444
    15.3019  16.4672

          k =-0.1500 0.4500 0.3500 (  4835 PWs)   bands (ev):

   -45.1007 -21.5647 -21.4459 -21.3874  -5.8449  -5.3967  -5.1838  -4.2492
    -4.1946  -4.1603  -4.0734  -3.9209   3.7114   6.7642   7.0519   7.1873
     7.4805   8.7807   9.5041   9.6903   9.9279  10.7282  14.7796  14.8952
    15.3780  16.4693

          k = 0.4500-0.4500 0.1500 (  4825 PWs)   bands (ev):

   -45.1004 -21.5184 -21.4454 -21.4453  -6.0007  -5.1675  -5.1536  -4.2303
    -4.1736  -4.1152  -4.0993  -3.9235   3.6899   6.7367   6.9979   7.0594
     7.2096   8.7102   9.4175   9.7315   9.7473  11.0848  14.9183  14.9707
    15.3956  16.7864

          k = 0.3500-0.2500 0.2500 (  4841 PWs)   bands (ev):

   -45.1010 -21.5425 -21.4328 -21.4104  -5.9017  -5.4221  -5.2847  -4.2351
    -4.2177  -4.1151  -4.0192  -3.9950   3.9712   6.7887   6.8828   7.3077
     7.8345   8.1932   9.7179  10.1434  10.2613  10.5129  14.3129  14.8004
    15.0270  16.2072

          k = 0.4500-0.2500 0.2500 (  4829 PWs)   bands (ev):

   -45.1007 -21.5419 -21.4460 -21.4098  -5.8522  -5.4205  -5.2359  -4.2297
    -4.2035  -4.0773  -4.0133  -3.9926   3.9184   6.6840   6.8395   7.0129
     7.7758   8.2352   9.5016  10.1638  10.2110  10.5725  14.4429  14.8821
    15.2403  16.4581

          k = 0.3500-0.3500 0.2500 (  4833 PWs)   bands (ev):

   -45.1005 -21.5416 -21.4320 -21.4317  -5.8415  -5.3676  -5.2826  -4.2124
    -4.2033  -4.0568  -3.9737  -3.9706   4.0011   6.6114   6.6137   7.1203
     7.5271   7.9818   9.3018  10.2559  10.2957  10.7549  14.4773  14.9186
    15.1311  16.5523

          k = 0.4500-0.3500 0.2500 (  4825 PWs)   bands (ev):

   -45.1002 -21.5410 -21.4450 -21.4312  -5.8251  -5.3414  -5.2498  -4.2054
    -4.1853  -4.0077  -3.9738  -3.9401   4.0019   6.4619   6.6020   6.8548
     7.4109   7.9776   8.9342  10.2824  10.3021  10.8871  14.7010  14.9481
    15.2908  16.9032

          k =-0.2500 0.4500 0.3500 (  4825 PWs)   bands (ev):

   -45.1002 -21.5638 -21.4450 -21.4089  -5.7105  -5.4506  -5.2515  -4.2175
    -4.1749  -4.0435  -3.9810  -3.8900   3.9729   6.5212   6.5648   6.8714
     7.2944   8.0967   8.8933  10.2315  10.4175  10.7281  14.7507  14.9345
    15.3223  16.9102

          k = 0.4500-0.4500 0.2500 (  4833 PWs)   bands (ev):

   -45.1000 -21.5404 -21.4444 -21.4444  -5.8301  -5.2691  -5.2562  -4.1970
    -4.1649  -3.9707  -3.9592  -3.8927   4.0351   6.4336   6.4512   6.7294
     7.1554   7.9498   8.4940  10.3153  10.3193  11.0739  14.9441  15.0138
    15.3703  17.2382

          k = 0.4500-0.3500 0.3500 (  4819 PWs)   bands (ev):

   -45.0998 -21.5628 -21.4440 -21.4303  -5.6464  -5.4214  -5.3104  -4.1835
    -4.1667  -3.9345  -3.8882  -3.8528   4.2918   6.1365   6.1990   6.7794
     7.2582   7.4948   8.0800  10.5590  10.6830  10.8842  14.9180  15.0891
    15.3164  17.3397

          k = 0.4500-0.4500 0.3500 (  4813 PWs)   bands (ev):

   -45.0995 -21.5622 -21.4435 -21.4434  -5.6555  -5.3536  -5.3403  -4.1635
    -4.1616  -3.8649  -3.8326  -3.8307   4.5255   6.0034   6.0066   6.6601
     7.1558   7.3086   7.4825  10.6894  10.6981  11.0633  15.1216  15.1937
    15.3598  17.7108

     the Fermi energy is    11.2280 ev

!    total energy              =    -364.94531459 Ry
     Harris-Foulkes estimate   =    -364.94531460 Ry
     estimated scf accuracy    <          8.7E-09 Ry

     The total energy is the sum of the following terms:

     one-electron contribution =     -77.27455215 Ry
     hartree contribution      =      69.37381148 Ry
     xc contribution           =     -86.00049192 Ry
     ewald contribution        =    -271.04971480 Ry
     smearing contrib. (-TS)   =       0.00563281 Ry

     convergence has been achieved in  12 iterations

     Forces acting on atoms (cartesian axes, Ry/au):

     atom    1 type  1   force =     0.00000000    0.00000000    0.02085215
     atom    2 type  2   force =     0.00000000    0.00000000   -0.05907654
     atom    3 type  3   force =     0.00000000    0.00000000    0.03804823
     atom    4 type  3   force =     0.00000000    0.00000000    0.00008808
     atom    5 type  3   force =     0.00000000    0.00000000    0.00008808

     Total force =     0.073298     Total SCF correction =     0.000116


     Computing stress (Cartesian axis) and pressure

          total   stress  (Ry/bohr**3)                   (kbar)     P=  112.86
   0.00064452   0.00000000   0.00000000         94.81      0.00      0.00
   0.00000000   0.00064452   0.00000000          0.00     94.81      0.00
   0.00000000   0.00000000   0.00101249          0.00      0.00    148.94


     BFGS Geometry Optimization

     number of scf cycles    =   1
     number of bfgs steps    =   0

     enthalpy new            =    -364.9453145901 Ry

     new trust radius        =       0.1012894145 bohr
     new conv_thr            =       0.0000000100 Ry

     new unit-cell volume =    410.44849 a.u.^3 (    60.82219 Ang^3 )
     density =      8.27428 g/cm^3

CELL_PARAMETERS (alat=  7.37000000)
   1.000000000   0.000000000   0.000000000
   0.000000000   1.000000000   0.000000000
   0.000000000   0.000000000   1.025312372

ATOMIC_POSITIONS (crystal)
Pb       0.000000000   0.000000000   0.002829329
Ti       0.500000000   0.500000000   0.539984187
O        0.500000000   0.500000000   0.005162582
O        0.500000000   0.000000000   0.500011951
O        0.000000000   0.500000000   0.500011951



     Writing output data file PbTiO3.save/
     NEW-OLD atomic charge density approx. for the potential

     Check: negative core charge=   -0.000006
     extrapolated charge   45.06150, renormalised to   44.00000

     total cpu time spent up to now is      534.2 secs

     Self-consistent Calculation

     iteration #  1     ecut=    80.00 Ry     beta= 0.70
     Davidson diagonalization with overlap
     ethr =  1.00E-06,  avg # of iterations = 11.1

     total cpu time spent up to now is      623.4 secs

     total energy              =    -364.84879228 Ry
     Harris-Foulkes estimate   =    -363.29752909 Ry
     estimated scf accuracy    <       0.07873195 Ry

     iteration #  2     ecut=    80.00 Ry     beta= 0.70
     Davidson diagonalization with overlap
     ethr =  1.79E-04,  avg # of iterations =  5.7

     total cpu time spent up to now is      684.4 secs

     total energy              =    -364.89713483 Ry
     Harris-Foulkes estimate   =    -365.04956387 Ry
     estimated scf accuracy    <       0.47242512 Ry

     iteration #  3     ecut=    80.00 Ry     beta= 0.70
     Davidson diagonalization with overlap
     ethr =  1.79E-04,  avg # of iterations =  5.4

     total cpu time spent up to now is      724.5 secs

     total energy              =    -364.95414037 Ry
     Harris-Foulkes estimate   =    -364.97276250 Ry
     estimated scf accuracy    <       0.06611513 Ry

     iteration #  4     ecut=    80.00 Ry     beta= 0.70
     Davidson diagonalization with overlap
     ethr =  1.50E-04,  avg # of iterations =  1.9

     total cpu time spent up to now is      753.4 secs

     total energy              =    -364.95447777 Ry
     Harris-Foulkes estimate   =    -364.95896838 Ry
     estimated scf accuracy    <       0.01568318 Ry

     iteration #  5     ecut=    80.00 Ry     beta= 0.70
     Davidson diagonalization with overlap
     ethr =  3.56E-05,  avg # of iterations =  3.1

     total cpu time spent up to now is      785.1 secs

     total energy              =    -364.95459864 Ry
     Harris-Foulkes estimate   =    -364.95611051 Ry
     estimated scf accuracy    <       0.00621902 Ry

     iteration #  6     ecut=    80.00 Ry     beta= 0.70
     Davidson diagonalization with overlap
     ethr =  1.41E-05,  avg # of iterations =  2.2

     total cpu time spent up to now is      814.0 secs

     total energy              =    -364.95408372 Ry
     Harris-Foulkes estimate   =    -364.95492484 Ry
     estimated scf accuracy    <       0.00271539 Ry

     iteration #  7     ecut=    80.00 Ry     beta= 0.70
     Davidson diagonalization with overlap
     ethr =  6.17E-06,  avg # of iterations =  3.9

     total cpu time spent up to now is      845.3 secs

     total energy              =    -364.95414248 Ry
     Harris-Foulkes estimate   =    -364.95435359 Ry
     estimated scf accuracy    <       0.00048085 Ry

     iteration #  8     ecut=    80.00 Ry     beta= 0.70
     Davidson diagonalization with overlap
     ethr =  1.09E-06,  avg # of iterations =  4.2

     total cpu time spent up to now is      887.4 secs

     total energy              =    -364.95428405 Ry
     Harris-Foulkes estimate   =    -364.95428576 Ry
     estimated scf accuracy    <       0.00001988 Ry

     iteration #  9     ecut=    80.00 Ry     beta= 0.70
     Davidson diagonalization with overlap
     ethr =  4.52E-08,  avg # of iterations =  1.7

     total cpu time spent up to now is      916.4 secs

     total energy              =    -364.95427915 Ry
     Harris-Foulkes estimate   =    -364.95428509 Ry
     estimated scf accuracy    <       0.00001747 Ry

     iteration # 10     ecut=    80.00 Ry     beta= 0.70
     Davidson diagonalization with overlap
     ethr =  3.97E-08,  avg # of iterations =  3.0

     total cpu time spent up to now is      949.7 secs

     total energy              =    -364.95427916 Ry
     Harris-Foulkes estimate   =    -364.95428208 Ry
     estimated scf accuracy    <       0.00000610 Ry

     iteration # 11     ecut=    80.00 Ry     beta= 0.70
     Davidson diagonalization with overlap
     ethr =  1.39E-08,  avg # of iterations =  3.1

     total cpu time spent up to now is      981.2 secs

     total energy              =    -364.95428039 Ry
     Harris-Foulkes estimate   =    -364.95428045 Ry
     estimated scf accuracy    <       0.00000019 Ry

     iteration # 12     ecut=    80.00 Ry     beta= 0.70
     Davidson diagonalization with overlap
     ethr =  4.22E-10,  avg # of iterations =  3.1

     total cpu time spent up to now is     1024.9 secs

     total energy              =    -364.95428052 Ry
     Harris-Foulkes estimate   =    -364.95428052 Ry
     estimated scf accuracy    <       0.00000002 Ry

     iteration # 13     ecut=    80.00 Ry     beta= 0.70
     Davidson diagonalization with overlap
     ethr =  5.32E-11,  avg # of iterations =  2.8

     total cpu time spent up to now is     1055.8 secs

     End of self-consistent calculation

          k = 0.0500 0.0500 0.0488 (  4855 PWs)   bands (ev):

   -45.7003 -21.9966 -21.9652 -21.9651  -6.9751  -5.9126  -5.8777  -4.6248
    -4.6246  -4.6241  -4.5046  -4.4530   4.8849   7.0668   7.1697   7.3054
     9.2006   9.2578   9.4575   9.6941   9.8918   9.9167  12.8802  13.1794
    13.1809  15.2592

          k = 0.0500 0.0500 0.1463 (  4845 PWs)   bands (ev):

   -45.7001 -22.0065 -21.9648 -21.9648  -6.8900  -5.8873  -5.8474  -4.6339
    -4.6309  -4.6236  -4.5369  -4.4513   4.5470   7.1614   7.2256   7.4896
     8.9954   9.0580   9.4548   9.5316   9.9051   9.9163  12.8808  13.4316
    13.4423  15.2600

          k = 0.0500 0.0500 0.2438 (  4839 PWs)   bands (ev):

   -45.6998 -22.0225 -21.9643 -21.9642  -6.7459  -5.8489  -5.7946  -4.6522
    -4.6403  -4.6228  -4.5893  -4.4503   4.1429   7.1786   7.3250   7.4942
     8.7212   8.7800   9.4122   9.5874   9.9596  10.0202  12.8818  13.8181
    13.8360  15.2613

          k = 0.0500 0.0500 0.3414 (  4837 PWs)   bands (ev):

   -45.6995 -22.0384 -21.9637 -21.9637  -6.5912  -5.8157  -5.7361  -4.6866
    -4.6486  -4.6314  -4.6220  -4.4518   3.8333   6.8606   7.4433   7.5687
     8.4659   8.5011   9.3586   9.8034  10.0068  10.3849  12.8818  14.1876
    14.2081  15.2628

          k = 0.0500 0.0500 0.4389 (  4849 PWs)   bands (ev):

   -45.6993 -22.0482 -21.9633 -21.9633  -6.4884  -5.7996  -5.6960  -4.7222
    -4.6532  -4.6469  -4.6214  -4.4542   3.6738   6.5731   7.5360   7.7023
     8.2904   8.3007   9.3237   9.8869  10.0380  10.8341  12.8792  14.1475
    14.4109  14.4343

          k = 0.0500 0.1500 0.1463 (  4852 PWs)   bands (ev):

   -45.6998 -22.0060 -21.9780 -21.9643  -6.7990  -5.8530  -5.8172  -4.6461
    -4.6335  -4.6297  -4.5266  -4.4720   4.3154   7.0938   7.2758   7.6717
     8.7318   8.9858   9.3528   9.5620   9.6889   9.9431  13.2262  13.4419
    13.5720  15.5142

          k = 0.0500 0.1500 0.2438 (  4839 PWs)   bands (ev):

   -45.6995 -22.0220 -21.9774 -21.9637  -6.6609  -5.8173  -5.7726  -4.6657
    -4.6396  -4.6313  -4.5532  -4.4692   3.9864   7.0647   7.3503   7.6191
     8.4571   8.7549   9.2102   9.6099   9.7294  10.1267  13.2243  13.8278
    13.9182  15.5881

          k = 0.0500 0.1500 0.3414 (  4849 PWs)   bands (ev):

   -45.6992 -22.0378 -21.9768 -21.9632  -6.5163  -5.7820  -5.7256  -4.6911
    -4.6455  -4.6312  -4.5764  -4.4699   3.7157   6.8258   7.3703   7.6173
     8.2359   8.5283   9.2737   9.6108   9.7862  10.4229  13.2158  14.1956
    14.2539  15.0565

          k = 0.0500 0.1500 0.4389 (  4848 PWs)   bands (ev):

   -45.6990 -22.0476 -21.9764 -21.9628  -6.4230  -5.7594  -5.6962  -4.7117
    -4.6505  -4.6311  -4.5838  -4.4742   3.5710   6.5630   7.3935   7.7243
     8.1162   8.3385   9.3627   9.5977   9.8223  10.6662  13.2020  14.4097
    14.4315  14.6064

          k = 0.0500 0.2500 0.2438 (  4846 PWs)   bands (ev):

   -45.6991 -22.0211 -21.9985 -21.9629  -6.5274  -5.7773  -5.7138  -4.6716
    -4.6461  -4.6359  -4.5155  -4.4987   3.7519   6.9704   7.3690   7.5338
     8.3405   8.4739   8.9904   9.4244   9.8221  10.2403  13.7046  13.8405
    14.1713  15.5534

          k = 0.0500 0.2500 0.3414 (  4848 PWs)   bands (ev):

   -45.6988 -22.0368 -21.9978 -21.9623  -6.4103  -5.7391  -5.6689  -4.6827
    -4.6482  -4.6400  -4.5223  -4.4852   3.5321   6.7786   7.2339   7.5462
     8.1187   8.4307   8.8400   9.4415   9.9468  10.3160  13.6993  14.2002
    14.4234  15.3301

          k = 0.0500 0.2500 0.4389 (  4839 PWs)   bands (ev):

   -45.6986 -22.0465 -21.9974 -21.9620  -6.3429  -5.6957  -5.6505  -4.6940
    -4.6493  -4.6444  -4.5152  -4.4847   3.4083   6.5408   7.2251   7.5200
     8.0845   8.3600   8.8245   9.4731   9.9641  10.3578  13.6882  14.4248
    14.5754  15.1971

          k = 0.0500 0.3500 0.3414 (  4836 PWs)   bands (ev):

   -45.6983 -22.0358 -22.0187 -21.9615  -6.3316  -5.6788  -5.5848  -4.6795
    -4.6541  -4.6406  -4.5407  -4.4369   3.3584   6.6579   6.9383   7.6221
     7.9616   8.3207   8.7455   9.1925  10.0355  10.2627  14.1292  14.2107
    14.6547  15.5190

          k = 0.0500 0.3500 0.4389 (  4827 PWs)   bands (ev):

   -45.6981 -22.0454 -22.0183 -21.9612  -6.3002  -5.6193  -5.5569  -4.6834
    -4.6536  -4.6460  -4.5525  -4.4028   3.2515   6.4875   6.8529   7.5683
     7.9225   8.3615   8.6665   9.1751   9.8681  10.3832  14.1356  14.4239
    14.7773  15.7453

          k = 0.0500 0.4500 0.4389 (  4821 PWs)   bands (ev):

   -45.6978 -22.0447 -22.0312 -21.9606  -6.2904  -5.5635  -5.4786  -4.6837
    -4.6551  -4.6457  -4.5762  -4.3547   3.1582   6.3547   6.6930   7.6707
     7.7176   8.4641   8.6260   9.0194   9.5890  10.5480  14.3926  14.4228
    14.9368  15.9098

          k = 0.1500 0.1500 0.1463 (  4842 PWs)   bands (ev):

   -45.6995 -22.0055 -21.9776 -21.9773  -6.7093  -5.8270  -5.7899  -4.6502
    -4.6484  -4.6278  -4.5147  -4.4788   4.1596   7.0864   7.1345   7.7996
     8.5314   8.7121   9.3817   9.6058   9.7613   9.8403  13.4643  13.5654
    13.5849  15.9716

          k = 0.1500 0.1500 0.2438 (  4842 PWs)   bands (ev):

   -45.6992 -22.0214 -21.9770 -21.9767  -6.5747  -5.7918  -5.7613  -4.6723
    -4.6477  -4.6225  -4.5282  -4.4700   3.8992   7.0383   7.0960   7.6553
     8.3024   8.5596   9.2126   9.6915   9.8145   9.9982  13.4418  13.8837
    13.9207  15.6922

          k = 0.1500 0.1500 0.3414 (  4844 PWs)   bands (ev):

   -45.6989 -22.0372 -21.9763 -21.9761  -6.4358  -5.7565  -5.7318  -4.6906
    -4.6429  -4.6126  -4.5466  -4.4695   3.6684   6.8290   7.0417   7.5028
     8.1528   8.5832   9.0101   9.7231   9.8628  10.2701  13.3790  14.2148
    14.2362  15.2075

          k = 0.1500 0.1500 0.4389 (  4853 PWs)   bands (ev):

   -45.6987 -22.0469 -21.9759 -21.9758  -6.3479  -5.7342  -5.7129  -4.7000
    -4.6395  -4.6009  -4.5606  -4.4754   3.5398   6.5710   7.0006   7.5401
     8.0865   8.5928   8.9190   9.7289   9.8908  10.4239  13.3204  14.4263
    14.4326  14.9874

          k = 0.1500 0.2500 0.2438 (  4844 PWs)   bands (ev):

   -45.6988 -22.0205 -21.9979 -21.9760  -6.4398  -5.7673  -5.7171  -4.6739
    -4.6541  -4.6092  -4.4964  -4.4764   3.7480   6.8991   7.0176   7.4616
     7.9868   8.3039   9.3777   9.5619   9.8643  10.0747  13.7288  13.9055
    14.1230  15.4342

          k = 0.1500 0.2500 0.3414 (  4837 PWs)   bands (ev):

   -45.6985 -22.0362 -21.9973 -21.9754  -6.3207  -5.7389  -5.6944  -4.6792
    -4.6483  -4.5920  -4.4942  -4.4667   3.5764   6.7432   6.9285   7.1895
     7.8108   8.3149   9.1803   9.6754   9.9589  10.1030  13.6872  14.1777
    14.3540  15.4301

          k = 0.1500 0.2500 0.4389 (  4841 PWs)   bands (ev):

   -45.6983 -22.0459 -21.9969 -21.9750  -6.2523  -5.7075  -5.6860  -4.6811
    -4.6425  -4.5792  -4.4898  -4.4693   3.4737   6.5422   6.8152   7.1563
     7.7777   8.3730   9.0291   9.7402   9.9297  10.1289  13.6627  14.3795
    14.5234  15.5384

          k = 0.1500 0.3500 0.3414 (  4837 PWs)   bands (ev):

   -45.6980 -22.0353 -22.0182 -21.9746  -6.2355  -5.7131  -5.6248  -4.6725
    -4.6361  -4.5743  -4.4962  -4.4207   3.4702   6.6138   6.8314   6.9874
     7.3713   8.2964   9.2889   9.4371   9.7846  10.2465  13.9851  14.2080
    14.5630  15.6710

          k = 0.1500 0.3500 0.4389 (  4835 PWs)   bands (ev):

   -45.6979 -22.0449 -22.0177 -21.9742  -6.2016  -5.6643  -5.6165  -4.6702
    -4.6243  -4.5638  -4.5072  -4.3870   3.3909   6.4594   6.7858   6.8648
     7.2804   8.3177   9.1487   9.4832   9.5962  10.3780  14.0755  14.3448
    14.6822  15.9913

          k = 0.1500 0.4500 0.4389 (  4825 PWs)   bands (ev):

   -45.6976 -22.0442 -22.0306 -21.9737  -6.1917  -5.6372  -5.5464  -4.6653
    -4.5961  -4.5520  -4.5343  -4.3379   3.3333   6.3419   6.6424   6.9323
     7.0023   8.3535   8.9852   9.3763   9.4424  10.5398  14.3061  14.3783
    14.8267  16.2151

          k = 0.2500 0.2500 0.2438 (  4842 PWs)   bands (ev):

   -45.6983 -22.0197 -21.9972 -21.9969  -6.3057  -5.7540  -5.7085  -4.6602
    -4.6581  -4.5777  -4.4693  -4.4478   3.7194   6.7189   6.7369   7.3475
     7.6964   7.8401   9.5646   9.8151   9.8182  10.0167  13.7171  14.0980
    14.1449  15.4360

          k = 0.2500 0.2500 0.3414 (  4841 PWs)   bands (ev):

   -45.6980 -22.0353 -21.9965 -21.9963  -6.1874  -5.7316  -5.7229  -4.6593
    -4.6423  -4.5387  -4.4452  -4.4369   3.6328   6.4998   6.6635   6.9736
     7.6081   7.6983   9.3587   9.8284   9.9625  10.0964  13.7464  14.2312
    14.3470  15.6619

          k = 0.2500 0.2500 0.4389 (  4829 PWs)   bands (ev):

   -45.6979 -22.0449 -21.9961 -21.9959  -6.1221  -5.7318  -5.7078  -4.6566
    -4.6320  -4.4992  -4.4449  -4.4323   3.5709   6.3673   6.5665   6.7865
     7.5792   7.7107   9.1397   9.8166   9.9992  10.1610  13.8204  14.3351
    14.5262  15.9784

          k = 0.2500 0.3500 0.3414 (  4833 PWs)   bands (ev):

   -45.6976 -22.0344 -22.0173 -21.9955  -6.0869  -5.7544  -5.6800  -4.6445
    -4.6217  -4.4908  -4.4183  -4.3877   3.6636   6.3392   6.4186   6.7824
     7.1338   7.6272   8.9110   9.9205  10.0409  10.2607  13.9333  14.3142
    14.5156  15.9845

          k = 0.2500 0.3500 0.4389 (  4825 PWs)   bands (ev):

   -45.6974 -22.0440 -22.0169 -21.9951  -6.0432  -5.7265  -5.6950  -4.6394
    -4.6072  -4.4527  -4.4160  -4.3552   3.6478   6.1882   6.4271   6.5603
     7.0138   7.6087   8.5722   9.9374  10.0831  10.3780  14.1236  14.3555
    14.6287  16.3529

          k = 0.2500 0.4500 0.4389 (  4833 PWs)   bands (ev):

   -45.6971 -22.0433 -22.0297 -21.9946  -6.0304  -5.7338  -5.6358  -4.6326
    -4.5853  -4.4219  -4.4042  -4.3051   3.6796   6.1880   6.2719   6.3974
     6.7732   7.6238   8.0944   9.9763  10.0810  10.5287  14.3135  14.4372
    14.7574  16.6677

          k = 0.3500 0.3500 0.3414 (  4848 PWs)   bands (ev):

   -45.6972 -22.0335 -22.0164 -22.0163  -5.9754  -5.7662  -5.7120  -4.6132
    -4.6126  -4.4157  -4.3553  -4.3341   3.8685   6.0571   6.0802   6.6394
     7.0237   7.1408   8.2096  10.1799  10.2339  10.3936  14.1078  14.4898
    14.5518  16.3744

          k = 0.3500 0.3500 0.4389 (  4819 PWs)   bands (ev):

   -45.6970 -22.0430 -22.0160 -22.0159  -5.9057  -5.7758  -5.7429  -4.6094
    -4.5964  -4.3607  -4.3234  -4.3101   3.9561   5.8665   6.0420   6.4678
     6.9506   7.0119   7.7513  10.2960  10.3743  10.4112  14.3226  14.5065
    14.6350  16.7578

          k = 0.3500 0.4500 0.4389 (  4813 PWs)   bands (ev):

   -45.6967 -22.0424 -22.0288 -22.0154  -5.8746  -5.8071  -5.7099  -4.5997
    -4.5819  -4.3088  -4.2835  -4.2604   4.1767   5.7912   5.8319   6.3004
     6.7463   6.9805   7.1242  10.3507  10.4865  10.5259  14.4879  14.6146
    14.7330  17.1355

          k = 0.4500 0.4500 0.4389 (  4800 PWs)   bands (ev):

   -45.6964 -22.0418 -22.0283 -22.0283  -5.8666  -5.7624  -5.7466  -4.5808
    -4.5787  -4.2437  -4.2361  -4.2044   4.7062   5.5971   5.6012   6.1765
     6.2633   6.6644   6.7984  10.5047  10.5124  10.6782  14.6661  14.7060
    14.8097  17.5090

          k = 0.1500-0.0500 0.0488 (  4845 PWs)   bands (ev):

   -45.7000 -21.9962 -21.9783 -21.9647  -6.8814  -5.8762  -5.8427  -4.6350
    -4.6326  -4.6239  -4.5160  -4.4705   4.5618   7.1133   7.2234   7.5091
     8.9777   9.1584   9.4583   9.5545   9.7267   9.9013  13.1804  13.2316
    13.3517  15.2446

          k = 0.2500-0.0500 0.0488 (  4839 PWs)   bands (ev):

   -45.6996 -22.0000 -21.9949 -21.9639  -6.7251  -5.8138  -5.7848  -4.6531
    -4.6449  -4.6229  -4.5683  -4.4698   4.1661   7.1390   7.3115   7.4694
     8.8074   8.8872   9.3996   9.4948   9.6964   9.9750  13.1868  13.7254
    13.7604  15.2405

          k = 0.3500-0.0500 0.0488 (  4837 PWs)   bands (ev):

   -45.6991 -22.0208 -21.9944 -21.9631  -6.5618  -5.7451  -5.7263  -4.6794
    -4.6558  -4.6277  -4.6217  -4.4630   3.8608   6.7492   7.4684   7.6162
     8.4948   8.5756   9.3428   9.4818   9.8137  10.3998  13.1891  14.1809
    14.2119  14.7373

          k = 0.4500-0.0500 0.0488 (  4849 PWs)   bands (ev):

   -45.6988 -22.0338 -21.9939 -21.9626  -6.4567  -5.6974  -5.6909  -4.7111
    -4.6620  -4.6544  -4.6211  -4.4592   3.7048   6.4276   7.6372   7.8462
     8.2117   8.2785   9.2958   9.5186   9.8624  10.8893  13.1838  13.9644
    14.4554  14.5034

          k = 0.1500-0.1500 0.0488 (  4852 PWs)   bands (ev):

   -45.6997 -21.9957 -21.9780 -21.9777  -6.7904  -5.8488  -5.8070  -4.6451
    -4.6343  -4.6309  -4.5090  -4.4878   4.3365   7.1511   7.1768   7.6722
     8.7553   8.8525   9.4701   9.4770   9.7301   9.9501  13.3193  13.3758
    13.5003  15.4711

          k = 0.2500-0.1500 0.0488 (  4839 PWs)   bands (ev):

   -45.6993 -21.9995 -21.9944 -21.9770  -6.6408  -5.8010  -5.7477  -4.6619
    -4.6433  -4.6314  -4.5363  -4.4836   4.0257   7.0909   7.2769   7.5760
     8.4837   8.6148   9.2216   9.5790   9.7479  10.1078  13.3425  13.7488
    13.9126  15.5078

          k =-0.0500 0.2500 0.1463 (  4839 PWs)   bands (ev):

   -45.6994 -22.0054 -21.9989 -21.9635  -6.6492  -5.7999  -5.7605  -4.6641
    -4.6437  -4.6295  -4.5392  -4.4848   3.9984   7.0419   7.3611   7.5770
     8.5481   8.7666   9.2193   9.4966   9.6154  10.1227  13.4380  13.7301
    13.9149  15.5466

          k = 0.3500-0.1500 0.0488 (  4849 PWs)   bands (ev):

   -45.6988 -22.0202 -21.9939 -21.9761  -6.4892  -5.7454  -5.6876  -4.6828
    -4.6511  -4.6308  -4.5675  -4.4774   3.7657   6.7498   7.3650   7.6271
     8.1895   8.5306   9.0056   9.6355   9.7654  10.4266  13.3333  14.1907
    14.3148  14.9211

          k =-0.0500 0.3500 0.1463 (  4849 PWs)   bands (ev):

   -45.6989 -22.0204 -22.0042 -21.9627  -6.4970  -5.7452  -5.6963  -4.6860
    -4.6515  -4.6290  -4.5732  -4.4801   3.7350   6.7341   7.4027   7.6552
     8.2675   8.5676   9.1671   9.5183   9.5948  10.4436  13.4352  14.1807
    14.3138  14.9057

          k = 0.4500-0.1500 0.0488 (  4848 PWs)   bands (ev):

   -45.6986 -22.0331 -21.9935 -21.9756  -6.3953  -5.7036  -5.6519  -4.6999
    -4.6589  -4.6303  -4.5783  -4.4778   3.6270   6.4369   7.4454   7.8009
     8.0548   8.2638   9.0110   9.6281   9.7981  10.6794  13.3113  14.4053
    14.4810  14.5671

          k =-0.0500 0.4500 0.1463 (  4848 PWs)   bands (ev):

   -45.6986 -22.0333 -22.0037 -21.9622  -6.4025  -5.7069  -5.6547  -4.7041
    -4.6586  -4.6286  -4.5896  -4.4782   3.5948   6.4323   7.5048   7.7986
     8.1051   8.2945   9.2163   9.5451   9.5838  10.7093  13.4203  14.3603
    14.4510  14.5814

          k = 0.2500-0.2500 0.0488 (  4846 PWs)   bands (ev):

   -45.6988 -21.9992 -21.9979 -21.9932  -6.5096  -5.7696  -5.6854  -4.6637
    -4.6473  -4.6377  -4.5224  -4.4832   3.8100   7.0255   7.2769   7.5088
     8.2120   8.2263   9.1243   9.4212   9.9603  10.2099  13.6658  13.8078
    14.2039  15.4807

          k = 0.3500-0.2500 0.0488 (  4848 PWs)   bands (ev):

   -45.6984 -22.0192 -21.9976 -21.9926  -6.3908  -5.7162  -5.6218  -4.6720
    -4.6498  -4.6407  -4.5286  -4.4644   3.6111   6.7552   7.1891   7.5034
     7.9748   8.2485   8.8396   9.4259  10.0383  10.3030  13.7093  14.1919
    14.5036  15.2146

          k =-0.0500 0.3500 0.2438 (  4848 PWs)   bands (ev):

   -45.6986 -22.0209 -22.0187 -21.9621  -6.4037  -5.7301  -5.6404  -4.6813
    -4.6512  -4.6375  -4.5188  -4.4926   3.5408   6.7172   7.2484   7.5962
     8.1210   8.4141   8.8522   9.3094   9.9009  10.3455  13.8146  14.1690
    14.4817  15.1973

          k = 0.4500-0.2500 0.0488 (  4839 PWs)   bands (ev):

   -45.6981 -22.0321 -21.9971 -21.9922  -6.3273  -5.6647  -5.5846  -4.6802
    -4.6567  -4.6433  -4.5167  -4.4618   3.4979   6.4498   7.2605   7.4037
     8.0158   8.2831   8.6124   9.4827   9.9823  10.3684  13.7019  14.4797
    14.7027  15.0425

          k =-0.0500 0.4500 0.2438 (  4839 PWs)   bands (ev):

   -45.6983 -22.0325 -22.0194 -21.9616  -6.3355  -5.6891  -5.5915  -4.6914
    -4.6572  -4.6391  -4.5156  -4.4897   3.4224   6.4371   7.3083   7.5357
     8.0854   8.3588   8.7801   9.3240   9.8826  10.4073  13.8066  14.4302
    14.7019  14.9589

          k = 0.3500-0.3500 0.0488 (  4836 PWs)   bands (ev):

   -45.6979 -22.0185 -22.0180 -21.9921  -6.3247  -5.6403  -5.5524  -4.6671
    -4.6556  -4.6392  -4.5474  -4.4015   3.4586   6.7335   6.8030   7.4950
     7.7612   8.2028   8.7893   9.1757   9.9693  10.3809  14.1054  14.2378
    14.7078  15.4815

          k = 0.4500-0.3500 0.0488 (  4827 PWs)   bands (ev):

   -45.6977 -22.0310 -22.0176 -21.9916  -6.3009  -5.5650  -5.5111  -4.6684
    -4.6559  -4.6476  -4.5528  -4.3634   3.3669   6.4400   6.8151   7.4090
     7.7285   8.3633   8.5876   9.1419   9.7199  10.5274  14.1629  14.4795
    14.8529  15.5940

          k =-0.0500 0.4500 0.3414 (  4827 PWs)   bands (ev):

   -45.6980 -22.0351 -22.0316 -21.9610  -6.2988  -5.6253  -5.5233  -4.6835
    -4.6561  -4.6447  -4.5517  -4.4046   3.2569   6.4215   6.8949   7.6006
     7.8776   8.4412   8.6083   9.1242   9.8419  10.3893  14.1873  14.4097
    14.8402  15.5278

          k = 0.4500-0.4500 0.0488 (  4821 PWs)   bands (ev):

   -45.6974 -22.0304 -22.0303 -21.9912  -6.3009  -5.4772  -5.4625  -4.6670
    -4.6550  -4.6500  -4.5741  -4.3063   3.2858   6.3361   6.6294   7.4814
     7.5150   8.4977   8.6111   8.9181   9.3923  10.7076  14.4655  14.4890
    14.9445  15.7448

          k = 0.2500-0.1500 0.1463 (  4842 PWs)   bands (ev):

   -45.6991 -22.0049 -21.9984 -21.9766  -6.5636  -5.7878  -5.7381  -4.6699
    -4.6479  -4.6238  -4.5158  -4.4816   3.9213   7.0148   7.1065   7.6271
     8.3028   8.4697   9.3137   9.5883   9.7537  10.0443  13.5332  13.8489
    13.9268  15.6284

          k = 0.3500-0.1500 0.1463 (  4844 PWs)   bands (ev):

   -45.6986 -22.0198 -22.0037 -21.9758  -6.4191  -5.7501  -5.6764  -4.6855
    -4.6407  -4.6151  -4.5390  -4.4779   3.7048   6.7344   7.0934   7.4984
     8.1018   8.5146   9.0015   9.6620   9.7657  10.3017  13.4741  14.2177
    14.3183  15.0835

          k = 0.4500-0.1500 0.1463 (  4853 PWs)   bands (ev):

   -45.6984 -22.0327 -22.0032 -21.9753  -6.3318  -5.7268  -5.6322  -4.6917
    -4.6361  -4.6037  -4.5588  -4.4800   3.5838   6.4396   7.0731   7.5577
     8.0124   8.5920   8.7803   9.7138   9.7532  10.4305  13.4129  14.4623
    14.5777  14.8239

          k = 0.2500-0.2500 0.1463 (  4844 PWs)   bands (ev):

   -45.6986 -22.0043 -21.9975 -21.9975  -6.4310  -5.7654  -5.6942  -4.6682
    -4.6553  -4.6102  -4.4990  -4.4684   3.7835   6.9233   6.9733   7.4488
     7.9057   8.2374   9.4118   9.4952   9.9780  10.0304  13.7263  13.9017
    14.1495  15.4038

          k = 0.3500-0.2500 0.1463 (  4837 PWs)   bands (ev):

   -45.6982 -22.0188 -22.0031 -21.9966  -6.3123  -5.7341  -5.6390  -4.6713
    -4.6463  -4.5934  -4.5000  -4.4506   3.6383   6.7156   6.8961   7.1535
     7.7163   8.2535   9.1564   9.5626   9.9757  10.1530  13.7050  14.1946
    14.4355  15.3675

          k =-0.1500 0.3500 0.2438 (  4837 PWs)   bands (ev):

   -45.6983 -22.0204 -22.0181 -21.9752  -6.3160  -5.7477  -5.6503  -4.6779
    -4.6447  -4.5915  -4.4875  -4.4761   3.5931   6.6922   6.9443   7.2049
     7.7508   8.3290   9.2242   9.5358   9.9390  10.1262  13.7278  14.1766
    14.4213  15.3543

          k = 0.4500-0.2500 0.1463 (  4841 PWs)   bands (ev):

   -45.6979 -22.0316 -22.0026 -21.9960  -6.2500  -5.7099  -5.5950  -4.6704
    -4.6390  -4.5839  -4.4940  -4.4490   3.5493   6.4479   6.8116   7.1206
     7.6837   8.3513   8.9279   9.6302   9.8655  10.2106  13.6861  14.4381
    14.6533  15.4197

          k =-0.1500 0.4500 0.2438 (  4841 PWs)   bands (ev):

   -45.6981 -22.0319 -22.0189 -21.9746  -6.2487  -5.7331  -5.5987  -4.6778
    -4.6366  -4.5764  -4.4918  -4.4746   3.4996   6.4389   6.8724   7.1578
     7.6990   8.4257   9.0038   9.6047   9.8987  10.1298  13.7028  14.4093
    14.6495  15.3705

          k = 0.3500-0.3500 0.1463 (  4837 PWs)   bands (ev):

   -45.6978 -22.0181 -22.0176 -22.0018  -6.2420  -5.6759  -5.5958  -4.6619
    -4.6361  -4.5757  -4.5061  -4.3874   3.5533   6.6963   6.7014   6.8923
     7.2967   8.2431   9.2049   9.3692   9.7060  10.3832  14.0026  14.2425
    14.6174  15.6781

          k = 0.4500-0.3500 0.1463 (  4835 PWs)   bands (ev):

   -45.6975 -22.0306 -22.0172 -22.0014  -6.2188  -5.6256  -5.5579  -4.6571
    -4.6216  -4.5681  -4.5132  -4.3491   3.4939   6.4324   6.7199   6.7792
     7.1928   8.3030   9.0067   9.3871   9.4795  10.5188  14.1040  14.4215
    14.7767  15.9499

          k =-0.1500 0.4500 0.3414 (  4835 PWs)   bands (ev):

   -45.6978 -22.0346 -22.0310 -21.9740  -6.2017  -5.6896  -5.5656  -4.6691
    -4.6205  -4.5619  -4.5100  -4.3887   3.4005   6.4160   6.7857   6.8783
     7.2643   8.3537   9.1229   9.4563   9.5714  10.3619  14.0642  14.3778
    14.7455  15.8734

          k = 0.4500-0.4500 0.1463 (  4825 PWs)   bands (ev):

   -45.6972 -22.0300 -22.0299 -22.0009  -6.2200  -5.5474  -5.5340  -4.6509
    -4.5945  -4.5565  -4.5389  -4.2909   3.4499   6.3254   6.6078   6.8220
     6.8917   8.3326   8.8075   9.2903   9.3131  10.7021  14.3962  14.4366
    14.8848  16.2656

          k = 0.3500-0.2500 0.2438 (  4841 PWs)   bands (ev):

   -45.6979 -22.0195 -22.0172 -21.9961  -6.1904  -5.7563  -5.6608  -4.6561
    -4.6392  -4.5385  -4.4508  -4.4272   3.6646   6.5159   6.6180   6.9342
     7.4962   7.7908   9.3002   9.8224   9.8807  10.1468  13.7550  14.2260
    14.4351  15.6405

          k = 0.4500-0.2500 0.2438 (  4829 PWs)   bands (ev):

   -45.6976 -22.0309 -22.0181 -21.9956  -6.1337  -5.7616  -5.6102  -4.6517
    -4.6265  -4.4953  -4.4542  -4.4192   3.6203   6.3925   6.4612   6.7446
     7.4611   7.8395   9.0281   9.8276   9.8628  10.2000  13.8224  14.3821
    14.6565  15.8978

          k = 0.3500-0.3500 0.2438 (  4833 PWs)   bands (ev):

   -45.6975 -22.0191 -22.0169 -22.0159  -6.1072  -5.7265  -5.6576  -4.6385
    -4.6213  -4.4934  -4.4307  -4.3615   3.7116   6.3341   6.3928   6.7348
     7.0746   7.6590   8.8457   9.8936   9.9012  10.3875  13.9582  14.3230
    14.5756  15.9922

          k = 0.4500-0.3500 0.2438 (  4825 PWs)   bands (ev):

   -45.6972 -22.0299 -22.0180 -22.0157  -6.0844  -5.7089  -5.6223  -4.6319
    -4.6040  -4.4545  -4.4287  -4.3220   3.7248   6.2073   6.3752   6.4379
     6.9715   7.6677   8.4435   9.8785   9.9217  10.5132  14.1387  14.4118
    14.7405  16.3565

          k =-0.2500 0.4500 0.3414 (  4825 PWs)   bands (ev):

   -45.6973 -22.0337 -22.0301 -21.9950  -6.0503  -5.7675  -5.6255  -4.6384
    -4.6038  -4.4469  -4.4189  -4.3547   3.6675   6.2494   6.3572   6.4709
     7.0474   7.6513   8.5125   9.9578  10.0314  10.3630  14.0912  14.4011
    14.7004  16.3307

          k = 0.4500-0.4500 0.2438 (  4833 PWs)   bands (ev):

   -45.6969 -22.0294 -22.0293 -22.0166  -6.0875  -5.6397  -5.6274  -4.6241
    -4.5830  -4.4265  -4.4174  -4.2623   3.7731   6.1999   6.2414   6.3277
     6.6701   7.6550   7.9607   9.9062   9.9072  10.6931  14.3979  14.4532
    14.8475  16.7033

          k = 0.4500-0.3500 0.3414 (  4819 PWs)   bands (ev):

   -45.6969 -22.0329 -22.0292 -22.0158  -5.9499  -5.7778  -5.6780  -4.6083
    -4.5932  -4.3620  -4.3356  -4.2884   3.9937   5.8859   6.0067   6.3839
     6.8936   7.1368   7.6765  10.2240  10.2994  10.5119  14.3097  14.5145
    14.7287  16.7726

          k = 0.4500-0.4500 0.3414 (  4813 PWs)   bands (ev):

   -45.6966 -22.0323 -22.0287 -22.0286  -5.9528  -5.7172  -5.7044  -4.5973
    -4.5800  -4.3112  -4.3026  -4.2281   4.2324   5.7892   5.8211   6.2597
     6.6638   7.0217   7.0901  10.3160  10.3196  10.6841  14.5236  14.5776
    14.8268  17.1502

     the Fermi energy is    10.8001 ev

!    total energy              =    -364.95428052 Ry
     Harris-Foulkes estimate   =    -364.95428052 Ry
     estimated scf accuracy    <          2.0E-09 Ry

     The total energy is the sum of the following terms:

     one-electron contribution =     -79.98080256 Ry
     hartree contribution      =      70.01116745 Ry
     xc contribution           =     -85.89102050 Ry
     ewald contribution        =    -269.09960538 Ry
     smearing contrib. (-TS)   =       0.00598048 Ry

     convergence has been achieved in  13 iterations

     Forces acting on atoms (cartesian axes, Ry/au):

     atom    1 type  1   force =     0.00000000    0.00000000    0.01720209
     atom    2 type  2   force =     0.00000000    0.00000000   -0.01404358
     atom    3 type  3   force =     0.00000000    0.00000000   -0.00984869
     atom    4 type  3   force =     0.00000000    0.00000000    0.00334509
     atom    5 type  3   force =     0.00000000    0.00000000    0.00334509

     Total force =     0.024749     Total SCF correction =     0.000065


     Computing stress (Cartesian axis) and pressure

          total   stress  (Ry/bohr**3)                   (kbar)     P=   49.23
   0.00037950   0.00000000   0.00000000         55.83      0.00      0.00
   0.00000000   0.00037950   0.00000000          0.00     55.83      0.00
   0.00000000   0.00000000   0.00024507          0.00      0.00     36.05


     number of scf cycles    =   2
     number of bfgs steps    =   1

     enthalpy old            =    -364.9453145901 Ry
     enthalpy new            =    -364.9542805179 Ry

     CASE: enthalpy_new < enthalpy_old

     new trust radius        =       0.0363113966 bohr
     new conv_thr            =       0.0000000017 Ry

     new unit-cell volume =    414.12675 a.u.^3 (    61.36725 Ang^3 )
     density =      8.20078 g/cm^3

CELL_PARAMETERS (alat=  7.37000000)
   1.000000000   0.000000000   0.000000000
   0.000000000   1.000000000   0.000000000
   0.000000000   0.000000000   1.034500770

ATOMIC_POSITIONS (crystal)
Pb       0.000000000   0.000000000   0.006025024
Ti       0.500000000   0.500000000   0.537057221
O        0.500000000   0.500000000   0.003710992
O        0.500000000   0.000000000   0.500603381
O        0.000000000   0.500000000   0.500603381



     Writing output data file PbTiO3.save/
     NEW-OLD atomic charge density approx. for the potential

     Check: negative core charge=   -0.000007
     extrapolated charge   44.38190, renormalised to   44.00000

     total cpu time spent up to now is     1142.5 secs

     Self-consistent Calculation

     iteration #  1     ecut=    80.00 Ry     beta= 0.70
     Davidson diagonalization with overlap
     c_bands:  1 eigenvalues not converged
     ethr =  1.00E-06,  avg # of iterations =  7.3

     total cpu time spent up to now is     1215.7 secs

     total energy              =    -364.94171373 Ry
     Harris-Foulkes estimate   =    -364.34990780 Ry
     estimated scf accuracy    <       0.00993028 Ry

     iteration #  2     ecut=    80.00 Ry     beta= 0.70
     Davidson diagonalization with overlap
     ethr =  2.26E-05,  avg # of iterations =  6.4

     total cpu time spent up to now is     1277.0 secs

     total energy              =    -364.95042449 Ry
     Harris-Foulkes estimate   =    -364.96829600 Ry
     estimated scf accuracy    <       0.05288461 Ry

     iteration #  3     ecut=    80.00 Ry     beta= 0.70
     Davidson diagonalization with overlap
     ethr =  2.26E-05,  avg # of iterations =  4.8

     total cpu time spent up to now is     1317.4 secs

     total energy              =    -364.95596621 Ry
     Harris-Foulkes estimate   =    -364.95764751 Ry
     estimated scf accuracy    <       0.00639623 Ry

     iteration #  4     ecut=    80.00 Ry     beta= 0.70
     Davidson diagonalization with overlap
     ethr =  1.45E-05,  avg # of iterations =  1.8

     total cpu time spent up to now is     1345.7 secs

     total energy              =    -364.95576613 Ry
     Harris-Foulkes estimate   =    -364.95638671 Ry
     estimated scf accuracy    <       0.00241930 Ry

     iteration #  5     ecut=    80.00 Ry     beta= 0.70
     Davidson diagonalization with overlap
     ethr =  5.50E-06,  avg # of iterations =  2.0

     total cpu time spent up to now is     1374.6 secs

     total energy              =    -364.95561188 Ry
     Harris-Foulkes estimate   =    -364.95590643 Ry
     estimated scf accuracy    <       0.00099710 Ry

     iteration #  6     ecut=    80.00 Ry     beta= 0.70
     Davidson diagonalization with overlap
     ethr =  2.27E-06,  avg # of iterations =  2.9

     total cpu time spent up to now is     1403.7 secs

     total energy              =    -364.95557332 Ry
     Harris-Foulkes estimate   =    -364.95567490 Ry
     estimated scf accuracy    <       0.00029862 Ry

     iteration #  7     ecut=    80.00 Ry     beta= 0.70
     Davidson diagonalization with overlap
     ethr =  6.79E-07,  avg # of iterations =  2.6

     total cpu time spent up to now is     1435.0 secs

     total energy              =    -364.95559672 Ry
     Harris-Foulkes estimate   =    -364.95561309 Ry
     estimated scf accuracy    <       0.00004680 Ry

     iteration #  8     ecut=    80.00 Ry     beta= 0.70
     Davidson diagonalization with overlap
     ethr =  1.06E-07,  avg # of iterations =  3.5

     total cpu time spent up to now is     1471.8 secs

     total energy              =    -364.95560825 Ry
     Harris-Foulkes estimate   =    -364.95560900 Ry
     estimated scf accuracy    <       0.00000373 Ry

     iteration #  9     ecut=    80.00 Ry     beta= 0.70
     Davidson diagonalization with overlap
     ethr =  8.48E-09,  avg # of iterations =  2.4

     total cpu time spent up to now is     1502.2 secs

     total energy              =    -364.95560866 Ry
     Harris-Foulkes estimate   =    -364.95560863 Ry
     estimated scf accuracy    <       0.00000149 Ry

     iteration # 10     ecut=    80.00 Ry     beta= 0.70
     Davidson diagonalization with overlap
     ethr =  3.38E-09,  avg # of iterations =  2.0

     total cpu time spent up to now is     1533.0 secs

     total energy              =    -364.95560796 Ry
     Harris-Foulkes estimate   =    -364.95560881 Ry
     estimated scf accuracy    <       0.00000180 Ry

     iteration # 11     ecut=    80.00 Ry     beta= 0.70
     Davidson diagonalization with overlap
     ethr =  3.38E-09,  avg # of iterations =  3.0

     total cpu time spent up to now is     1565.5 secs

     total energy              =    -364.95560825 Ry
     Harris-Foulkes estimate   =    -364.95560830 Ry
     estimated scf accuracy    <       0.00000013 Ry

     iteration # 12     ecut=    80.00 Ry     beta= 0.70
     Davidson diagonalization with overlap
     ethr =  3.02E-10,  avg # of iterations =  3.0

     total cpu time spent up to now is     1602.0 secs

     total energy              =    -364.95560828 Ry
     Harris-Foulkes estimate   =    -364.95560828 Ry
     estimated scf accuracy    <          5.5E-09 Ry

     iteration # 13     ecut=    80.00 Ry     beta= 0.70
     Davidson diagonalization with overlap
     ethr =  1.26E-11,  avg # of iterations =  3.7

     total cpu time spent up to now is     1639.6 secs

     End of self-consistent calculation

          k = 0.0500 0.0500 0.0483 (  4855 PWs)   bands (ev):

   -45.8835 -22.1637 -22.1439 -22.1438  -7.0727  -6.0182  -6.0057  -4.7794
    -4.7791  -4.7728  -4.6685  -4.5971   4.7322   6.9186   7.0800   7.2009
     9.0968   9.1640   9.3350   9.5764   9.7644   9.7880  12.7222  12.9680
    12.9685  14.9718

          k = 0.0500 0.0500 0.1450 (  4845 PWs)   bands (ev):

   -45.8833 -22.1725 -22.1436 -22.1435  -6.9936  -5.9949  -5.9771  -4.7879
    -4.7848  -4.7723  -4.6988  -4.5970   4.4049   7.0442   7.1380   7.3631
     8.8926   8.9663   9.3325   9.4105   9.7719   9.7865  12.7226  13.2138
    13.2224  15.0821

          k = 0.0500 0.0500 0.2417 (  4839 PWs)   bands (ev):

   -45.8830 -22.1867 -22.1431 -22.1430  -6.8596  -5.9596  -5.9276  -4.8053
    -4.7933  -4.7716  -4.7474  -4.5986   4.0127   7.0730   7.2430   7.3967
     8.6150   8.6867   9.2919   9.4476   9.8266   9.8730  12.7233  13.5887
    13.6045  15.0828

          k = 0.0500 0.0500 0.3383 (  4837 PWs)   bands (ev):

   -45.8828 -22.2008 -22.1426 -22.1425  -6.7161  -5.9292  -5.8729  -4.8387
    -4.8008  -4.7852  -4.7708  -4.6027   3.7117   6.7835   7.3729   7.4886
     8.3486   8.3984   9.2410   9.6645   9.8708  10.2036  12.7230  13.9463
    13.9645  14.7070

          k = 0.0500 0.0500 0.4350 (  4849 PWs)   bands (ev):

   -45.8826 -22.2094 -22.1423 -22.1422  -6.6209  -5.9144  -5.8357  -4.8724
    -4.8049  -4.7990  -4.7703  -4.6066   3.5562   6.5151   7.4816   7.6398
     8.1673   8.1696   9.2080   9.7491   9.9000  10.6284  12.7204  14.0051
    14.1620  14.1828

          k = 0.0500 0.1500 0.1450 (  4852 PWs)   bands (ev):

   -45.8830 -22.1720 -22.1566 -22.1431  -6.9020  -5.9614  -5.9454  -4.7995
    -4.7852  -4.7807  -4.6877  -4.6190   4.1802   6.9726   7.1834   7.5386
     8.6241   8.8894   9.2370   9.4419   9.5569   9.7980  13.0687  13.2245
    13.3744  15.3027

          k = 0.0500 0.1500 0.2417 (  4839 PWs)   bands (ev):

   -45.8828 -22.1861 -22.1561 -22.1426  -6.7743  -5.9295  -5.9026  -4.8181
    -4.7924  -4.7803  -4.7123  -4.6183   3.8594   6.9633   7.2631   7.5060
     8.3486   8.6631   9.0833   9.4927   9.5922   9.9629  13.0675  13.5986
    13.7059  15.4042

          k = 0.0500 0.1500 0.3383 (  4849 PWs)   bands (ev):

   -45.8825 -22.2002 -22.1556 -22.1421  -6.6406  -5.8961  -5.8595  -4.8423
    -4.7979  -4.7801  -4.7331  -4.6213   3.5958   6.7521   7.2912   7.5184
     8.1213   8.4336   9.1397   9.4972   9.6480  10.2356  13.0591  13.9548
    14.0282  14.8916

          k = 0.0500 0.1500 0.4350 (  4848 PWs)   bands (ev):

   -45.8823 -22.2088 -22.1552 -22.1417  -6.5545  -5.8738  -5.8335  -4.8618
    -4.8023  -4.7800  -4.7395  -4.6268   3.4547   6.5073   7.3276   7.6250
     8.0055   8.2277   9.2278   9.4872   9.6835  10.4647  13.0457  14.1695
    14.2089  14.4334

[...]
     5.6281   6.5069   7.1729   7.4062   7.7857   7.9406  11.9150  12.3769
    12.6407  13.7332

          k = 0.1500 0.4500 0.3842 (  5662 PWs)   bands (ev):

   -47.6559 -24.0994 -23.9457 -23.8977  -8.2363  -7.8581  -7.5512  -6.5326
    -6.4906  -6.4806  -6.3050  -6.1460   1.8034   4.4598   4.9412   5.1116
     5.6066   6.6014   7.1584   7.2565   7.7257   7.9503  12.0813  12.4918
    12.5870  13.6158

          k = 0.2500 0.2500 0.2135 (  5670 PWs)   bands (ev):

   -47.6562 -24.0962 -23.9167 -23.9165  -8.2997  -7.8965  -7.6120  -6.5271
    -6.5119  -6.4700  -6.3146  -6.1759   1.9266   4.8395   4.9223   5.3813
     6.1037   6.1570   7.0388   7.5008   7.8910   7.9635  11.7214  12.0854
    12.4146  13.6309

          k = 0.2500 0.2500 0.2989 (  5663 PWs)   bands (ev):

   -47.6562 -24.0987 -23.9166 -23.9164  -8.2725  -7.8991  -7.5966  -6.5279
    -6.5062  -6.4653  -6.3166  -6.1692   1.8652   4.7640   4.7764   5.3191
     5.9211   6.1724   7.2280   7.6428   7.8527   7.8998  11.7406  12.1852
    12.5056  13.6525

          k = 0.2500 0.2500 0.3842 (  5684 PWs)   bands (ev):

   -47.6562 -24.1003 -23.9165 -23.9164  -8.2561  -7.9007  -7.5862  -6.5284
    -6.5031  -6.4617  -6.3184  -6.1651   1.8251   4.6950   4.7258   5.2961
     5.8018   6.1795   7.3446   7.7200   7.7694   7.9073  11.7822  12.2568
    12.5447  13.6996

          k = 0.2500 0.3500 0.2989 (  5659 PWs)   bands (ev):

   -47.6558 -24.0976 -23.9341 -23.9158  -8.1739  -7.8990  -7.6021  -6.5168
    -6.4937  -6.4440  -6.2686  -6.1493   1.8742   4.5973   4.6950   5.0370
     5.7331   6.1324   7.2152   7.5685   7.8008   7.9863  11.9463  12.1977
    12.4706  13.8555

          k = 0.2500 0.3500 0.3842 (  5660 PWs)   bands (ev):

   -47.6558 -24.0991 -23.9340 -23.9157  -8.1665  -7.9011  -7.5855  -6.5164
    -6.4903  -6.4417  -6.2675  -6.1421   1.8676   4.5286   4.6202   4.9856
     5.6338   6.1012   7.2642   7.5754   7.8761   7.9744  12.0062  12.2513
    12.4810  14.0091

          k = 0.2500 0.4500 0.3842 (  5645 PWs)   bands (ev):

   -47.6555 -24.0984 -23.9449 -23.9153  -8.1259  -7.8861  -7.5842  -6.5114
    -6.4778  -6.4273  -6.2343  -6.1329   1.8947   4.4681   4.5084   4.8028
     5.5332   6.1781   6.9661   7.6122   7.8846   8.0385  12.1412  12.2807
    12.4907  14.0700

          k = 0.3500 0.3500 0.2989 (  5657 PWs)   bands (ev):

   -47.6554 -24.0965 -23.9334 -23.9333  -8.0657  -7.9132  -7.6253  -6.4901
    -6.4876  -6.4013  -6.2114  -6.1362   1.8894   4.4632   4.6461   4.7704
     5.6952   5.8336   6.8698   7.6569   7.7755   8.2654  12.0377  12.1805
    12.4625  14.1342

          k = 0.3500 0.3500 0.3842 (  5656 PWs)   bands (ev):

   -47.6553 -24.0980 -23.9333 -23.9333  -8.0631  -7.9185  -7.6047  -6.4897
    -6.4835  -6.4000  -6.2059  -6.1265   1.9259   4.3703   4.5408   4.7211
     5.6844   5.6888   6.7474   7.7713   7.9352   8.2613  12.1063  12.2018
    12.4711  14.3022

          k = 0.3500 0.4500 0.3842 (  5652 PWs)   bands (ev):

   -47.6551 -24.0973 -23.9442 -23.9328  -8.0144  -7.9138  -7.6157  -6.4824
    -6.4689  -6.3706  -6.1671  -6.1210   1.9486   4.3370   4.5005   4.5754
     5.4610   5.7905   6.2998   7.8641   7.9686   8.3931  12.1626  12.1906
    12.5498  14.5103

          k = 0.4500 0.4500 0.3842 (  5637 PWs)   bands (ev):

   -47.6548 -24.0966 -23.9437 -23.9437  -7.9463  -7.9290  -7.6350  -6.4726
    -6.4536  -6.3331  -6.1263  -6.1153   1.9526   4.4117   4.4758   4.5177
     5.3104   5.6571   5.7730   7.9769   7.9975   8.5850  12.1710  12.1815
    12.6470  14.4338

          k = 0.1500-0.0500 0.0427 (  5679 PWs)   bands (ev):

   -47.6574 -24.0947 -23.9002 -23.8888  -8.6811  -7.8985  -7.5926  -6.5348
    -6.5198  -6.4901  -6.4254  -6.2352   2.4017   5.2122   5.3849   5.7069
     6.4669   6.7537   7.0778   7.2095   7.4864   7.7592  11.2818  12.0928
    12.5403  13.7762

          k = 0.2500-0.0500 0.0427 (  5661 PWs)   bands (ev):

   -47.6570 -24.0937 -23.9179 -23.8881  -8.5477  -7.8967  -7.5951  -6.5432
    -6.5169  -6.5000  -6.3916  -6.2109   2.2368   5.0286   5.4834   5.5593
     6.4762   6.7744   6.9245   7.1210   7.3370   8.0080  11.6478  11.9337
    12.5810  13.5956

          k = 0.3500-0.0500 0.0427 (  5665 PWs)   bands (ev):

   -47.6565 -24.0926 -23.9357 -23.8875  -8.4079  -7.8894  -7.6058  -6.5454
    -6.5140  -6.5093  -6.3544  -6.1984   2.0856   4.8308   5.4995   5.7336
     6.3289   6.5964   6.8062   6.9310   7.1742   8.5259  11.9822  12.0290
    12.6068  12.9382

          k = 0.4500-0.0500 0.0427 (  5667 PWs)   bands (ev):

   -47.6563 -24.0920 -23.9466 -23.8871  -8.3195  -7.8744  -7.6228  -6.5452
    -6.5151  -6.5120  -6.3248  -6.2002   1.9992   4.7149   5.5931   5.9782
     6.0530   6.3135   6.7748   6.8771   7.1038   8.9027  12.1023  12.1841
    12.5034  12.6869

          k = 0.1500-0.1500 0.0427 (  5667 PWs)   bands (ev):

   -47.6571 -24.0941 -23.8998 -23.8997  -8.6030  -7.8965  -7.5987  -6.5328
    -6.5284  -6.4927  -6.3946  -6.2200   2.3042   5.2363   5.2909   5.6382
     6.3008   6.7494   6.9660   7.2571   7.6210   7.8159  11.4279  12.0143
    12.3339  13.7793

          k = 0.2500-0.1500 0.0427 (  5670 PWs)   bands (ev):

   -47.6567 -24.0931 -23.9175 -23.8991  -8.4720  -7.8943  -7.6096  -6.5381
    -6.5216  -6.4921  -6.3573  -6.2003   2.1530   5.0530   5.3395   5.6005
     6.2166   6.5231   6.8498   7.2399   7.6595   8.0584  11.6843  11.9396
    12.3060  13.5490

          k =-0.0500 0.2500 0.1281 (  5670 PWs)   bands (ev):

   -47.6569 -24.0953 -23.9179 -23.8881  -8.5243  -7.8938  -7.5917  -6.5398
    -6.5177  -6.5000  -6.3956  -6.2102   2.1348   4.9797   5.4418   5.6231
     6.4785   6.6543   6.9329   7.1755   7.3565   8.0669  11.6350  12.0219
    12.6362  13.6182

          k = 0.3500-0.1500 0.0427 (  5670 PWs)   bands (ev):

   -47.6563 -24.0921 -23.9352 -23.8984  -8.3349  -7.8885  -7.6271  -6.5394
    -6.5116  -6.4883  -6.3218  -6.1901   2.0113   4.8519   5.3773   5.7203
     5.9549   6.4939   6.7295   7.0786   7.5653   8.4177  11.9560  12.0406
    12.3123  13.0641

          k =-0.0500 0.3500 0.1281 (  5668 PWs)   bands (ev):

   -47.6565 -24.0942 -23.9356 -23.8874  -8.3943  -7.8856  -7.5957  -6.5414
    -6.5149  -6.5092  -6.3585  -6.1929   2.0152   4.7995   5.4536   5.7357
     6.2058   6.5566   6.8530   6.9570   7.2537   8.4983  11.9625  12.1178
    12.6596  13.0279

          k = 0.4500-0.1500 0.0427 (  5677 PWs)   bands (ev):

   -47.6560 -24.0914 -23.9461 -23.8980  -8.2484  -7.8758  -7.6469  -6.5386
    -6.5051  -6.4844  -6.2957  -6.1922   1.9291   4.7350   5.4146   5.6783
     6.0208   6.3659   6.5822   7.0244   7.5238   8.6352  12.0710  12.1447
    12.4273  12.7268

          k =-0.0500 0.4500 0.1281 (  5667 PWs)   bands (ev):

   -47.6563 -24.0935 -23.9465 -23.8870  -8.3153  -7.8683  -7.6069  -6.5412
    -6.5153  -6.5128  -6.3292  -6.1911   1.9468   4.6865   5.5400   5.8488
     6.0031   6.3074   6.8320   6.8940   7.2029   8.7886  12.1573  12.2669
    12.5581  12.7547

          k = 0.2500-0.2500 0.0427 (  5662 PWs)   bands (ev):

   -47.6563 -24.0921 -23.9169 -23.9166  -8.3454  -7.8923  -7.6334  -6.5255
    -6.5221  -6.4756  -6.3128  -6.1869   2.0156   5.0205   5.2205   5.6313
     6.1067   6.1082   6.8766   7.2221   7.8800   8.1131  11.7884  11.9593
    12.1797  13.3891

          k = 0.3500-0.2500 0.0427 (  5668 PWs)   bands (ev):

   -47.6559 -24.0911 -23.9344 -23.9160  -8.2135  -7.8889  -7.6614  -6.5216
    -6.5061  -6.4524  -6.2751  -6.1804   1.8790   4.8559   5.2404   5.5827
     5.8931   6.1777   6.7801   7.0674   7.9615   8.1769  11.9269  12.0488
    12.1929  13.1379

          k =-0.0500 0.3500 0.2135 (  5664 PWs)   bands (ev):

   -47.6565 -24.0967 -23.9355 -23.8873  -8.3735  -7.8786  -7.5784  -6.5355
    -6.5156  -6.5090  -6.3659  -6.1841   1.9060   4.7196   5.4217   5.6930
     6.0595   6.5434   6.8556   7.0126   7.4017   8.4272  11.9301  12.2595
    12.7440  13.1747

          k = 0.4500-0.2500 0.0427 (  5668 PWs)   bands (ev):

   -47.6556 -24.0904 -23.9453 -23.9156  -8.1304  -7.8798  -7.6860  -6.5194
    -6.4944  -6.4321  -6.2531  -6.1824   1.7962   4.7352   5.2959   5.4013
     6.0533   6.2557   6.4769   7.0427   7.9751   8.1922  11.9726  12.0905
    12.4045  12.8887

          k =-0.0500 0.4500 0.2135 (  5657 PWs)   bands (ev):

   -47.6562 -24.0960 -23.9464 -23.8869  -8.3097  -7.8581  -7.5792  -6.5354
    -6.5155  -6.5132  -6.3368  -6.1767   1.8645   4.6201   5.4611   5.6537
     5.9311   6.3777   6.8179   6.9528   7.3844   8.5897  12.1148  12.4667
    12.6771  12.8964

          k = 0.3500-0.3500 0.0427 (  5669 PWs)   bands (ev):

   -47.6554 -24.0900 -23.9337 -23.9336  -8.0866  -7.8900  -7.6989  -6.5055
    -6.4916  -6.4084  -6.2341  -6.1778   1.7361   4.7568   5.1873   5.5142
     5.9104   6.0628   6.8360   6.8428   7.8317   8.2674  11.9577  12.1372
    12.1668  13.0404

          k = 0.4500-0.3500 0.0427 (  5649 PWs)   bands (ev):

   -47.6552 -24.0893 -23.9445 -23.9331  -8.0055  -7.8857  -7.7290  -6.5010
    -6.4749  -6.3720  -6.2145  -6.1801   1.6445   4.6382   5.2118   5.4742
     5.8948   6.2458   6.5197   6.8972   7.5675   8.4047  12.0173  12.0860
    12.3718  12.8373

          k =-0.0500 0.4500 0.2989 (  5667 PWs)   bands (ev):

   -47.6562 -24.0985 -23.9462 -23.8868  -8.3057  -7.8476  -7.5492  -6.5313
    -6.5157  -6.5113  -6.3451  -6.1627   1.7852   4.5221   5.3462   5.5891
     5.8504   6.4534   6.7518   7.0225   7.6113   8.3513  12.0699  12.5527
    12.8142  13.1318

          k = 0.4500-0.4500 0.0427 (  5660 PWs)   bands (ev):

   -47.6549 -24.0886 -23.9440 -23.9440  -7.9175  -7.8894  -7.7660  -6.4945
    -6.4548  -6.3253  -6.1930  -6.1867   1.5438   4.5244   5.2328   5.6502
     5.7429   6.3727   6.5257   6.7448   7.1022   8.5923  12.0183  12.2642
    12.3585  12.6445

          k = 0.2500-0.1500 0.1281 (  5666 PWs)   bands (ev):

   -47.6567 -24.0947 -23.9174 -23.8990  -8.4503  -7.8933  -7.6050  -6.5371
    -6.5197  -6.4912  -6.3598  -6.1985   2.0797   4.9951   5.2240   5.6361
     6.2132   6.5157   6.8718   7.2883   7.6630   8.0731  11.6605  12.0073
    12.3890  13.6714

          k = 0.3500-0.1500 0.1281 (  5665 PWs)   bands (ev):

   -47.6563 -24.0936 -23.9351 -23.8983  -8.3222  -7.8872  -7.6163  -6.5374
    -6.5102  -6.4872  -6.3236  -6.1841   1.9709   4.8148   5.2131   5.6397
     5.9612   6.5617   6.7518   7.1415   7.5850   8.3524  11.9271  12.0976
    12.3989  13.2006

          k = 0.4500-0.1500 0.1281 (  5677 PWs)   bands (ev):

   -47.6560 -24.0929 -23.9460 -23.8979  -8.2447  -7.8726  -7.6307  -6.5366
    -6.5033  -6.4837  -6.2971  -6.1831   1.9071   4.7072   5.2226   5.5167
     6.0228   6.5051   6.6268   7.0775   7.5508   8.4996  12.1105  12.1693
    12.4763  12.9073

          k = 0.2500-0.2500 0.1281 (  5670 PWs)   bands (ev):

   -47.6563 -24.0937 -23.9168 -23.9166  -8.3277  -7.8939  -7.6257  -6.5261
    -6.5181  -6.4737  -6.3133  -6.1827   1.9832   4.9420   5.0939   5.4880
     6.1327   6.2104   6.8812   7.3367   7.8839   8.0591  11.7511  12.0028
    12.2847  13.5620

          k = 0.3500-0.2500 0.1281 (  5669 PWs)   bands (ev):

   -47.6558 -24.0926 -23.9343 -23.9160  -8.2029  -7.8915  -7.6490  -6.5197
    -6.5039  -6.4505  -6.2734  -6.1730   1.8810   4.8044   5.0667   5.3233
     5.9485   6.2758   6.8212   7.2215   7.9536   8.0729  11.8960  12.0792
    12.2998  13.3591

          k =-0.1500 0.3500 0.2135 (  5662 PWs)   bands (ev):

   -47.6562 -24.0961 -23.9350 -23.8982  -8.3030  -7.8845  -7.5976  -6.5354
    -6.5069  -6.4850  -6.3271  -6.1745   1.9038   4.7334   5.0753   5.5113
     5.8700   6.5408   6.9435   7.2339   7.6213   8.2331  11.9033  12.1971
    12.5075  13.3862

          k = 0.4500-0.2500 0.1281 (  5663 PWs)   bands (ev):

   -47.6556 -24.0919 -23.9452 -23.9155  -8.1279  -7.8811  -7.6689  -6.5171
    -6.4921  -6.4308  -6.2494  -6.1729   1.8166   4.7132   5.0486   5.2012
     5.9336   6.4008   6.6415   7.1623   7.9331   8.0815  12.0066  12.1186
    12.4369  13.1620

          k =-0.1500 0.4500 0.2135 (  5669 PWs)   bands (ev):

   -47.6560 -24.0954 -23.9459 -23.8978  -8.2402  -7.8672  -7.6023  -6.5342
    -6.4993  -6.4828  -6.2997  -6.1687   1.8694   4.6413   5.0575   5.3196
     5.8564   6.6258   6.8093   7.1555   7.6049   8.2828  12.1005  12.2934
    12.5239  13.1866

          k = 0.3500-0.3500 0.1281 (  5666 PWs)   bands (ev):

   -47.6554 -24.0915 -23.9336 -23.9335  -8.0801  -7.8955  -7.6837  -6.5012
    -6.4912  -6.4064  -6.2289  -6.1679   1.7718   4.7200   5.0474   5.1524
     5.7965   6.2442   6.8423   7.1338   7.6833   8.2677  11.9508  12.1596
    12.2738  13.2981

          k = 0.4500-0.3500 0.1281 (  5657 PWs)   bands (ev):

   -47.6552 -24.0908 -23.9444 -23.9331  -8.0052  -7.8913  -7.7101  -6.4970
    -6.4742  -6.3711  -6.2056  -6.1689   1.6967   4.6231   5.0754   5.1117
     5.6746   6.3728   6.7214   7.0861   7.4199   8.4029  12.0590  12.1569
    12.3826  13.1233

          k =-0.1500 0.4500 0.2989 (  5660 PWs)   bands (ev):

   -47.6559 -24.0979 -23.9458 -23.8977  -8.2373  -7.8616  -7.5715  -6.5329
    -6.4941  -6.4817  -6.3028  -6.1545   1.8293   4.5401   4.9696   5.1778
     5.6970   6.6137   7.0427   7.2206   7.6777   8.0702  12.0860  12.4282
    12.5554  13.4528

          k = 0.4500-0.4500 0.1281 (  5640 PWs)   bands (ev):

   -47.6549 -24.0901 -23.9439 -23.9439  -7.9217  -7.8971  -7.7431  -6.4903
    -6.4546  -6.3263  -6.1804  -6.1729   1.6105   4.5132   5.1550   5.2436
     5.4324   6.4375   6.6926   6.9752   7.0503   8.5911  12.1516  12.3087
    12.3090  12.9504

          k = 0.3500-0.2500 0.2135 (  5668 PWs)   bands (ev):

   -47.6558 -24.0951 -23.9342 -23.9159  -8.1874  -7.8954  -7.6269  -6.5178
    -6.4992  -6.4473  -6.2709  -6.1611   1.8803   4.7039   4.8539   5.1439
     5.8678   6.2120   7.0305   7.4409   7.8650   7.9962  11.8957  12.1294
    12.4127  13.6494

          k = 0.4500-0.2500 0.2135 (  5663 PWs)   bands (ev):

   -47.6555 -24.0944 -23.9451 -23.9154  -8.1256  -7.8831  -7.6388  -6.5142
    -6.4874  -6.4292  -6.2436  -6.1576   1.8483   4.6545   4.7781   4.9962
     5.7729   6.3112   6.9395   7.3695   7.7943   8.0379  12.0652  12.1515
    12.4749  13.5825

          k = 0.3500-0.3500 0.2135 (  5663 PWs)   bands (ev):

   -47.6554 -24.0940 -23.9335 -23.9334  -8.0718  -7.9044  -7.6561  -6.4944
    -6.4906  -6.4036  -6.2202  -6.1520   1.8303   4.6164   4.8343   4.8877
     5.7253   6.0730   6.9616   7.4881   7.5580   8.2676  11.9737  12.1614
    12.4007  13.7543

          k = 0.4500-0.3500 0.2135 (  5651 PWs)   bands (ev):

   -47.6551 -24.0933 -23.9443 -23.9330  -8.0070  -7.9000  -7.6765  -6.4908
    -6.4728  -6.3703  -6.1910  -6.1507   1.7865   4.5855   4.7564   4.8552
     5.5570   6.1435   6.7311   7.4403   7.4853   8.4006  12.0965  12.1863
    12.4421  13.6418

          k =-0.2500 0.4500 0.2989 (  5655 PWs)   bands (ev):

   -47.6555 -24.0969 -23.9450 -23.9153  -8.1253  -7.8849  -7.6059  -6.5123
    -6.4817  -6.4279  -6.2378  -6.1423   1.8778   4.5489   4.5992   4.8587
     5.6240   6.2199   7.0275   7.5303   7.7899   8.0358  12.1145  12.2160
    12.4935  13.9074

          k = 0.4500-0.4500 0.2135 (  5640 PWs)   bands (ev):

   -47.6549 -24.0926 -23.9439 -23.9438  -7.9303  -7.9095  -7.7035  -6.4835
    -6.4542  -6.3284  -6.1598  -6.1508   1.7281   4.4906   4.8678   4.8945
     5.3308   6.1272   6.3520   7.4305   7.4372   8.5890  12.2046  12.2458
    12.4225  13.5122

          k = 0.4500-0.3500 0.2989 (  5644 PWs)   bands (ev):

   -47.6551 -24.0958 -23.9442 -23.9329  -8.0111  -7.9086  -7.6397  -6.4853
    -6.4707  -6.3702  -6.1763  -6.1324   1.8839   4.4591   4.5822   4.6511
     5.4980   5.9113   6.4787   7.7114   7.7827   8.3972  12.1334  12.1862
    12.5135  14.1773

          k = 0.4500-0.4500 0.2989 (  5632 PWs)   bands (ev):

   -47.6548 -24.0951 -23.9438 -23.9437  -7.9400  -7.9216  -7.6617  -6.4768
    -6.4538  -6.3311  -6.1391  -6.1288   1.8608   4.4578   4.5972   4.6497
     5.3142   5.8359   5.9831   7.7818   7.7992   8.5867  12.1822  12.2007
    12.5691  14.0796

     the Fermi energy is     8.7915 ev

!    total energy              =    -364.97276798 Ry
     Harris-Foulkes estimate   =    -364.97276798 Ry
     estimated scf accuracy    <          2.7E-11 Ry

     The total energy is the sum of the following terms:

     one-electron contribution =    -110.12824904 Ry
     hartree contribution      =      81.85973072 Ry
     xc contribution           =     -85.77379607 Ry
     ewald contribution        =    -250.93448197 Ry
     smearing contrib. (-TS)   =       0.00402837 Ry

     convergence has been achieved in  14 iterations

     Forces acting on atoms (cartesian axes, Ry/au):

     atom    1 type  1   force =     0.00000000    0.00000000    0.00005900
     atom    2 type  2   force =     0.00000000    0.00000000   -0.00013589
     atom    3 type  3   force =     0.00000000    0.00000000    0.00000031
     atom    4 type  3   force =     0.00000000    0.00000000    0.00003829
     atom    5 type  3   force =     0.00000000    0.00000000    0.00003829

     Total force =     0.000158     Total SCF correction =     0.000006


     Computing stress (Cartesian axis) and pressure

          total   stress  (Ry/bohr**3)                   (kbar)     P=  -14.83
  -0.00016055   0.00000000   0.00000000        -23.62      0.00      0.00
   0.00000000  -0.00016055   0.00000000          0.00    -23.62      0.00
   0.00000000   0.00000000   0.00001861          0.00      0.00      2.74


     Writing output data file PbTiO3.save/

     init_run     :     47.83s CPU     55.56s WALL (       2 calls)
     electrons    :   7624.10s CPU  10538.36s WALL (      21 calls)
     update_pot   :    507.48s CPU    508.36s WALL (      19 calls)
     forces       :    376.49s CPU    392.30s WALL (      21 calls)
     stress       :    775.36s CPU    800.57s WALL (      21 calls)

     Called by init_run:
     wfcinit      :     17.74s CPU     24.78s WALL (       2 calls)
     potinit      :      7.75s CPU      7.82s WALL (       2 calls)
     hinit0       :     20.89s CPU     20.94s WALL (       2 calls)

     Called by electrons:
     c_bands      :   6450.27s CPU   8806.41s WALL (     264 calls)
     sum_band     :    878.20s CPU   1359.86s WALL (     264 calls)
     v_of_rho     :     57.40s CPU     62.38s WALL (     285 calls)
     newd         :    252.10s CPU    327.14s WALL (     285 calls)
     mix_rho      :      5.93s CPU      6.86s WALL (     264 calls)

     Called by c_bands:
     init_us_2    :     89.74s CPU    127.57s WALL (   42900 calls)
     cegterg      :   6161.04s CPU   8481.41s WALL (   19800 calls)

     Called by sum_band:
     sum_band:bec :      1.12s CPU      1.55s WALL (   19800 calls)
     addusdens    :    290.46s CPU    360.67s WALL (     264 calls)

     Called by *egterg:
     h_psi        :   3317.42s CPU   5322.96s WALL (   91042 calls)
     s_psi        :    631.09s CPU    704.77s WALL (   91042 calls)
     g_psi        :     56.05s CPU     75.94s WALL (   71092 calls)
     cdiaghg      :    114.80s CPU    160.45s WALL (   89467 calls)

     Called by h_psi:
     h_psi:pot    :   3305.09s CPU   5302.13s WALL (   91042 calls)
     h_psi:calbec :    641.41s CPU    715.32s WALL (   91042 calls)
     vloc_psi     :   2016.13s CPU   3878.49s WALL (   91042 calls)
     add_vuspsi   :    642.28s CPU    701.94s WALL (   91042 calls)

     General routines
     calbec       :    943.81s CPU   1047.75s WALL (  118717 calls)
     fft          :     25.46s CPU     28.38s WALL (    4207 calls)
     ffts         :      0.60s CPU      1.00s WALL (     549 calls)
     fftw         :   2075.52s CPU   4018.11s WALL ( 3504414 calls)
     interpolate  :      2.34s CPU      2.97s WALL (     285 calls)

     Parallel routines

     PWSCF        :      2h35m CPU      3h25m WALL


   This run was terminated on:  18:56:14  16May2020            

=------------------------------------------------------------------------------=
   JOB DONE.
=------------------------------------------------------------------------------=
