
     Program PWSCF v.6.4.1 starts on 14May2020 at 16:45:37 

     This program is part of the open-source Quantum ESPRESSO suite
     for quantum simulation of materials; please cite
         "P. Giannozzi et al., J. Phys.:Condens. Matter 21 395502 (2009);
         "P. Giannozzi et al., J. Phys.:Condens. Matter 29 465901 (2017);
          URL http://www.quantum-espresso.org", 
     in publications or presentations arising from this work. More details at
     http://www.quantum-espresso.org/quote

     Parallel version (MPI), running on     1 processors

     MPI processes distributed on     1 nodes
     Reading input from PTO_7.5_10_0.548.pw.in
Warning: card  &CELL ignored
Warning: card   CELL_DYNAMICS = 'BFGS', ignored
Warning: card  / ignored

     Current dimensions of program PWSCF are:
     Max number of different atomic species (ntypx) = 10
     Max number of k-points (npk) =  40000
     Max angular momentum in pseudopotentials (lmaxx) =  3
     Message from routine read_upf::
     Pseudo file Pb.pbe-dn-rrkjus_psl.0.2.2.UPF has been fixed on the fly.
To avoid this message in the future, permanently fix 
 your pseudo files following these instructions: 
https://gitlab.com/QEF/q-e/blob/master/upftools/how_to_fix_upf.md
     Message from routine read_upf::
     Pseudo file O.pbe-n-rrkjus_psl.0.1.UPF has been fixed on the fly.
To avoid this message in the future, permanently fix 
 your pseudo files following these instructions: 
https://gitlab.com/QEF/q-e/blob/master/upftools/how_to_fix_upf.md
               file Pb.pbe-dn-rrkjus_psl.0.2.2.UPF: wavefunction(s)  6S renormalized

     Subspace diagonalization in iterative solution of the eigenvalue problem:
     a serial algorithm will be used


     G-vector sticks info
     --------------------
     sticks:   dense  smooth     PW     G-vecs:    dense   smooth      PW
     Sum        3577    1433    421               161235    40651    6355



     bravais-lattice index     =            1
     lattice parameter (alat)  =       7.5000  a.u.
     unit-cell volume          =     421.8750 (a.u.)^3
     number of atoms/cell      =            5
     number of atomic types    =            3
     number of electrons       =        44.00
     number of Kohn-Sham states=           26
     kinetic-energy cutoff     =      80.0000  Ry
     charge density cutoff     =     800.0000  Ry
     convergence threshold     =      1.0E-08
     mixing beta               =       0.7000
     number of iterations used =            8  plain     mixing
     Exchange-correlation      = PBE ( 1  4  3  4 0 0)
     nstep                     =           50


     celldm(1)=   7.500000  celldm(2)=   0.000000  celldm(3)=   0.000000
     celldm(4)=   0.000000  celldm(5)=   0.000000  celldm(6)=   0.000000

     crystal axes: (cart. coord. in units of alat)
               a(1) = (   1.000000   0.000000   0.000000 )  
               a(2) = (   0.000000   1.000000   0.000000 )  
               a(3) = (   0.000000   0.000000   1.000000 )  

     reciprocal axes: (cart. coord. in units 2 pi/alat)
               b(1) = (  1.000000  0.000000  0.000000 )  
               b(2) = (  0.000000  1.000000  0.000000 )  
               b(3) = (  0.000000  0.000000  1.000000 )  


     PseudoPot. # 1 for Pb read from file:
     ./Pb.pbe-dn-rrkjus_psl.0.2.2.UPF
     MD5 check sum: 7afc420059c37d6888fc09c0f121e83f
     Pseudo is Ultrasoft + core correction, Zval = 14.0
     Generated using "atomic" code by A. Dal Corso v.5.0.2 svn rev. 9415
     Using radial grid of 1281 points,  6 beta functions with: 
                l(1) =   0
                l(2) =   0
                l(3) =   1
                l(4) =   1
                l(5) =   2
                l(6) =   2
     Q(r) pseudized with 0 coefficients 


     PseudoPot. # 2 for Ti read from file:
     ./Ti.pbe-sp-van_ak.UPF
     MD5 check sum: 8e4df49b7f0d34bbd5052bf3f5ea0213
     Pseudo is Ultrasoft, Zval = 12.0
     Generated by new atomic code, or converted to UPF format
     Using radial grid of  851 points,  6 beta functions with: 
                l(1) =   0
                l(2) =   0
                l(3) =   1
                l(4) =   1
                l(5) =   2
                l(6) =   2
     Q(r) pseudized with  8 coefficients,  rinner =    1.000   1.000   1.000
                                                       1.000   1.000

     PseudoPot. # 3 for O  read from file:
     ./O.pbe-n-rrkjus_psl.0.1.UPF
     MD5 check sum: e057bbcf3229fb5d8c36c0c92f9568b4
     Pseudo is Ultrasoft + core correction, Zval =  6.0
     Generated using "atomic" code by A. Dal Corso v.5.0.2 svn rev. 9415
     Using radial grid of 1095 points,  4 beta functions with: 
                l(1) =   0
                l(2) =   0
                l(3) =   1
                l(4) =   1
     Q(r) pseudized with 0 coefficients 


     atomic species   valence    mass     pseudopotential
        Pb            14.00   207.20000     Pb( 1.00)
        Ti            12.00    47.87000     Ti( 1.00)
        O              6.00    16.00000     O ( 1.00)

      8 Sym. Ops. (no inversion) found



   Cartesian axes

     site n.     atom                  positions (alat units)
         1           Pb  tau(   1) = (   0.0000000   0.0000000   0.0000000  )
         2           Ti  tau(   2) = (   0.5000000   0.5480000   0.5000000  )
         3           O   tau(   3) = (   0.5000000   0.5000000   0.0000000  )
         4           O   tau(   4) = (   0.5000000   0.0000000   0.5000000  )
         5           O   tau(   5) = (   0.0000000   0.5000000   0.5000000  )

     number of k points=    75  Marzari-Vanderbilt smearing, width (Ry)=  0.0250
                       cart. coord. in units 2pi/alat
        k(    1) = (   0.0500000   0.0500000   0.0500000), wk =   0.0160000
        k(    2) = (   0.0500000   0.0500000   0.1500000), wk =   0.0320000
        k(    3) = (   0.0500000   0.0500000   0.2500000), wk =   0.0320000
        k(    4) = (   0.0500000   0.0500000   0.3500000), wk =   0.0320000
        k(    5) = (   0.0500000   0.0500000   0.4500000), wk =   0.0320000
        k(    6) = (   0.0500000   0.1500000   0.1500000), wk =   0.0320000
        k(    7) = (   0.0500000   0.1500000   0.2500000), wk =   0.0320000
        k(    8) = (   0.0500000   0.1500000   0.3500000), wk =   0.0320000
        k(    9) = (   0.0500000   0.1500000   0.4500000), wk =   0.0320000
        k(   10) = (   0.0500000   0.2500000   0.2500000), wk =   0.0320000
        k(   11) = (   0.0500000   0.2500000   0.3500000), wk =   0.0320000
        k(   12) = (   0.0500000   0.2500000   0.4500000), wk =   0.0320000
        k(   13) = (   0.0500000   0.3500000   0.3500000), wk =   0.0320000
        k(   14) = (   0.0500000   0.3500000   0.4500000), wk =   0.0320000
        k(   15) = (   0.0500000   0.4500000   0.4500000), wk =   0.0320000
        k(   16) = (   0.1500000   0.1500000   0.1500000), wk =   0.0160000
        k(   17) = (   0.1500000   0.1500000   0.2500000), wk =   0.0320000
        k(   18) = (   0.1500000   0.1500000   0.3500000), wk =   0.0320000
        k(   19) = (   0.1500000   0.1500000   0.4500000), wk =   0.0320000
        k(   20) = (   0.1500000   0.2500000   0.2500000), wk =   0.0320000
        k(   21) = (   0.1500000   0.2500000   0.3500000), wk =   0.0320000
        k(   22) = (   0.1500000   0.2500000   0.4500000), wk =   0.0320000
        k(   23) = (   0.1500000   0.3500000   0.3500000), wk =   0.0320000
        k(   24) = (   0.1500000   0.3500000   0.4500000), wk =   0.0320000
        k(   25) = (   0.1500000   0.4500000   0.4500000), wk =   0.0320000
        k(   26) = (   0.2500000   0.2500000   0.2500000), wk =   0.0160000
        k(   27) = (   0.2500000   0.2500000   0.3500000), wk =   0.0320000
        k(   28) = (   0.2500000   0.2500000   0.4500000), wk =   0.0320000
        k(   29) = (   0.2500000   0.3500000   0.3500000), wk =   0.0320000
        k(   30) = (   0.2500000   0.3500000   0.4500000), wk =   0.0320000
        k(   31) = (   0.2500000   0.4500000   0.4500000), wk =   0.0320000
        k(   32) = (   0.3500000   0.3500000   0.3500000), wk =   0.0160000
        k(   33) = (   0.3500000   0.3500000   0.4500000), wk =   0.0320000
        k(   34) = (   0.3500000   0.4500000   0.4500000), wk =   0.0320000
        k(   35) = (   0.4500000   0.4500000   0.4500000), wk =   0.0160000
        k(   36) = (  -0.0500000   0.1500000   0.0500000), wk =   0.0160000
        k(   37) = (  -0.0500000   0.2500000   0.0500000), wk =   0.0160000
        k(   38) = (  -0.0500000   0.3500000   0.0500000), wk =   0.0160000
        k(   39) = (  -0.0500000   0.4500000   0.0500000), wk =   0.0160000
        k(   40) = (   0.1500000   0.0500000   0.1500000), wk =   0.0160000
        k(   41) = (  -0.0500000   0.2500000   0.1500000), wk =   0.0320000
        k(   42) = (   0.2500000   0.0500000   0.1500000), wk =   0.0320000
        k(   43) = (  -0.0500000   0.3500000   0.1500000), wk =   0.0320000
        k(   44) = (   0.3500000   0.0500000   0.1500000), wk =   0.0320000
        k(   45) = (  -0.0500000   0.4500000   0.1500000), wk =   0.0320000
        k(   46) = (   0.4500000   0.0500000   0.1500000), wk =   0.0320000
        k(   47) = (   0.2500000   0.0500000   0.2500000), wk =   0.0160000
        k(   48) = (  -0.0500000   0.3500000   0.2500000), wk =   0.0320000
        k(   49) = (   0.3500000   0.0500000   0.2500000), wk =   0.0320000
        k(   50) = (  -0.0500000   0.4500000   0.2500000), wk =   0.0320000
        k(   51) = (   0.4500000   0.0500000   0.2500000), wk =   0.0320000
        k(   52) = (   0.3500000   0.0500000   0.3500000), wk =   0.0160000
        k(   53) = (  -0.0500000   0.4500000   0.3500000), wk =   0.0320000
        k(   54) = (   0.4500000   0.0500000   0.3500000), wk =   0.0320000
        k(   55) = (   0.4500000   0.0500000   0.4500000), wk =   0.0160000
        k(   56) = (  -0.1500000   0.2500000   0.1500000), wk =   0.0160000
        k(   57) = (  -0.1500000   0.3500000   0.1500000), wk =   0.0160000
        k(   58) = (  -0.1500000   0.4500000   0.1500000), wk =   0.0160000
        k(   59) = (   0.2500000   0.1500000   0.2500000), wk =   0.0160000
        k(   60) = (  -0.1500000   0.3500000   0.2500000), wk =   0.0320000
        k(   61) = (   0.3500000   0.1500000   0.2500000), wk =   0.0320000
        k(   62) = (  -0.1500000   0.4500000   0.2500000), wk =   0.0320000
        k(   63) = (   0.4500000   0.1500000   0.2500000), wk =   0.0320000
        k(   64) = (   0.3500000   0.1500000   0.3500000), wk =   0.0160000
        k(   65) = (  -0.1500000   0.4500000   0.3500000), wk =   0.0320000
        k(   66) = (   0.4500000   0.1500000   0.3500000), wk =   0.0320000
        k(   67) = (   0.4500000   0.1500000   0.4500000), wk =   0.0160000
        k(   68) = (  -0.2500000   0.3500000   0.2500000), wk =   0.0160000
        k(   69) = (  -0.2500000   0.4500000   0.2500000), wk =   0.0160000
        k(   70) = (   0.3500000   0.2500000   0.3500000), wk =   0.0160000
        k(   71) = (  -0.2500000   0.4500000   0.3500000), wk =   0.0320000
        k(   72) = (   0.4500000   0.2500000   0.3500000), wk =   0.0320000
        k(   73) = (   0.4500000   0.2500000   0.4500000), wk =   0.0160000
        k(   74) = (  -0.3500000   0.4500000   0.3500000), wk =   0.0160000
        k(   75) = (   0.4500000   0.3500000   0.4500000), wk =   0.0160000

     Dense  grid:   161235 G-vectors     FFT dimensions: (  72,  72,  72)

     Smooth grid:    40651 G-vectors     FFT dimensions: (  45,  45,  45)

     Estimated max dynamical RAM per process >     762.60 MB

     Check: negative core charge=   -0.000005

     Initial potential from superposition of free atoms

     starting charge   42.99760, renormalised to   44.00000
     Starting wfcs are   31 randomized atomic wfcs

     total cpu time spent up to now is       16.5 secs

     Self-consistent Calculation

     iteration #  1     ecut=    80.00 Ry     beta= 0.70
     Davidson diagonalization with overlap
     ethr =  1.00E-02,  avg # of iterations =  2.0

     total cpu time spent up to now is       47.4 secs

     total energy              =    -364.40146932 Ry
     Harris-Foulkes estimate   =    -365.28726884 Ry
     estimated scf accuracy    <       1.11192960 Ry

     iteration #  2     ecut=    80.00 Ry     beta= 0.70
     Davidson diagonalization with overlap
     ethr =  2.53E-03,  avg # of iterations =  4.0

     total cpu time spent up to now is       92.9 secs

     total energy              =    -363.35744550 Ry
     Harris-Foulkes estimate   =    -365.76008022 Ry
     estimated scf accuracy    <       8.86663689 Ry

     iteration #  3     ecut=    80.00 Ry     beta= 0.70
     Davidson diagonalization with overlap
     ethr =  2.53E-03,  avg # of iterations =  4.9

     total cpu time spent up to now is      139.3 secs

     total energy              =    -364.93006755 Ry
     Harris-Foulkes estimate   =    -365.09896736 Ry
     estimated scf accuracy    <       0.45925068 Ry

     iteration #  4     ecut=    80.00 Ry     beta= 0.70
     Davidson diagonalization with overlap
     ethr =  1.04E-03,  avg # of iterations =  2.8

     total cpu time spent up to now is      169.6 secs

     total energy              =    -364.91497717 Ry
     Harris-Foulkes estimate   =    -364.96370737 Ry
     estimated scf accuracy    <       0.16756472 Ry

     iteration #  5     ecut=    80.00 Ry     beta= 0.70
     Davidson diagonalization with overlap
     ethr =  3.81E-04,  avg # of iterations =  4.5

     total cpu time spent up to now is      208.5 secs

     total energy              =    -364.95387237 Ry
     Harris-Foulkes estimate   =    -364.95407196 Ry
     estimated scf accuracy    <       0.00132932 Ry

     iteration #  6     ecut=    80.00 Ry     beta= 0.70
     Davidson diagonalization with overlap
     ethr =  3.02E-06,  avg # of iterations =  4.6

     total cpu time spent up to now is      257.5 secs

     total energy              =    -364.95420106 Ry
     Harris-Foulkes estimate   =    -364.95464290 Ry
     estimated scf accuracy    <       0.00206347 Ry

     iteration #  7     ecut=    80.00 Ry     beta= 0.70
     Davidson diagonalization with overlap
     ethr =  3.02E-06,  avg # of iterations =  2.5

     total cpu time spent up to now is      288.5 secs

     total energy              =    -364.95412732 Ry
     Harris-Foulkes estimate   =    -364.95439854 Ry
     estimated scf accuracy    <       0.00072333 Ry

     iteration #  8     ecut=    80.00 Ry     beta= 0.70
     Davidson diagonalization with overlap
     ethr =  1.64E-06,  avg # of iterations =  3.5

     total cpu time spent up to now is      321.6 secs

     total energy              =    -364.95427041 Ry
     Harris-Foulkes estimate   =    -364.95427879 Ry
     estimated scf accuracy    <       0.00003642 Ry

     iteration #  9     ecut=    80.00 Ry     beta= 0.70
     Davidson diagonalization with overlap
     ethr =  8.28E-08,  avg # of iterations =  2.9

     total cpu time spent up to now is      358.0 secs

     total energy              =    -364.95426840 Ry
     Harris-Foulkes estimate   =    -364.95427948 Ry
     estimated scf accuracy    <       0.00003053 Ry

     iteration # 10     ecut=    80.00 Ry     beta= 0.70
     Davidson diagonalization with overlap
     ethr =  6.94E-08,  avg # of iterations =  2.3

     total cpu time spent up to now is      387.8 secs

     total energy              =    -364.95427129 Ry
     Harris-Foulkes estimate   =    -364.95427188 Ry
     estimated scf accuracy    <       0.00000162 Ry

     iteration # 11     ecut=    80.00 Ry     beta= 0.70
     Davidson diagonalization with overlap
     ethr =  3.69E-09,  avg # of iterations =  3.8

     total cpu time spent up to now is      430.8 secs

     total energy              =    -364.95427230 Ry
     Harris-Foulkes estimate   =    -364.95427236 Ry
     estimated scf accuracy    <       0.00000028 Ry

     iteration # 12     ecut=    80.00 Ry     beta= 0.70
     Davidson diagonalization with overlap
     ethr =  6.35E-10,  avg # of iterations =  1.8

     total cpu time spent up to now is      459.4 secs

     total energy              =    -364.95427229 Ry
     Harris-Foulkes estimate   =    -364.95427232 Ry
     estimated scf accuracy    <       0.00000008 Ry

     iteration # 13     ecut=    80.00 Ry     beta= 0.70
     Davidson diagonalization with overlap
     ethr =  1.92E-10,  avg # of iterations =  3.0

     total cpu time spent up to now is      492.0 secs

     End of self-consistent calculation

          k = 0.0500 0.0500 0.0500 (  5074 PWs)   bands (ev):

   -46.1360 -22.4804 -22.3769 -22.3768  -7.2675  -6.2936  -6.1745  -5.1341
    -5.1159  -5.1156  -4.9787  -4.9619   4.3851   6.7653   6.8123   6.9521
     8.6860   8.7118   9.1105   9.1912   9.4525   9.4744  12.4453  12.9276
    12.9369  14.6335

          k = 0.0500 0.0500 0.1500 (  5099 PWs)   bands (ev):

   -46.1358 -22.4800 -22.3873 -22.3765  -7.1879  -6.2593  -6.1453  -5.1415
    -5.1235  -5.1152  -5.0086  -4.9613   4.0940   6.8205   6.8959   7.1238
     8.4805   8.6613   9.0425   9.1155   9.3179   9.4480  12.7600  12.9372
    13.0181  14.8376

          k = 0.0500 0.0500 0.2500 (  5115 PWs)   bands (ev):

   -46.1354 -22.4794 -22.4041 -22.3759  -7.0551  -6.1986  -6.0989  -5.1541
    -5.1361  -5.1144  -5.0647  -4.9569   3.7302   6.8301   7.0025   7.1494
     8.3707   8.4695   8.9529   9.0398   9.2390   9.5118  12.9377  13.2185
    13.3338  14.8406

          k = 0.0500 0.0500 0.3500 (  5106 PWs)   bands (ev):

   -46.1351 -22.4787 -22.4208 -22.3753  -6.9168  -6.1274  -6.0565  -5.1720
    -5.1510  -5.1193  -5.1135  -4.9543   3.4442   6.4885   7.1836   7.3135
     8.1129   8.2301   8.8888   8.9613   9.3355   9.8779  12.9384  13.6329
    13.7266  14.1775

          k = 0.0500 0.0500 0.4500 (  5092 PWs)   bands (ev):

   -46.1349 -22.4783 -22.4311 -22.3749  -6.8281  -6.0697  -6.0395  -5.1986
    -5.1620  -5.1398  -5.1130  -4.9540   3.2950   6.2140   7.3739   7.5647
     7.8339   7.9337   8.8691   8.9424   9.3883  10.3128  12.9221  13.4703
    13.8779  13.9985

          k = 0.0500 0.1500 0.1500 (  5103 PWs)   bands (ev):

   -46.1356 -22.4907 -22.3869 -22.3761  -7.0949  -6.2389  -6.1177  -5.1417
    -5.1341  -5.1220  -5.0001  -4.9824   3.8749   6.7763   6.8795   7.2911
     8.2599   8.4872   8.8874   9.1701   9.2777   9.5410  12.7602  13.1819
    13.2442  14.9398

          k = 0.0500 0.1500 0.2500 (  5095 PWs)   bands (ev):

   -46.1352 -22.4900 -22.4036 -22.3755  -6.9665  -6.1860  -6.0786  -5.1575
    -5.1438  -5.1214  -5.0315  -4.9732   3.5839   6.7343   6.9992   7.2298
     8.1177   8.3297   8.7673   9.0217   9.2166   9.6940  13.1614  13.2372
    13.5037  14.9797

          k = 0.0500 0.1500 0.3500 (  5101 PWs)   bands (ev):

   -46.1349 -22.4893 -22.4203 -22.3749  -6.8349  -6.1314  -6.0360  -5.1762
    -5.1532  -5.1210  -5.0582  -4.9700   3.3394   6.4716   7.1109   7.2832
     7.8822   8.1781   8.7115   9.0037   9.1974   9.9326  13.1751  13.6266
    13.8445  14.3427

          k = 0.0500 0.1500 0.4500 (  5100 PWs)   bands (ev):

   -46.1347 -22.4889 -22.4306 -22.3745  -6.7521  -6.0970  -6.0067  -5.1909
    -5.1617  -5.1207  -5.0668  -4.9728   3.2072   6.2169   7.2265   7.4450
     7.7082   7.9276   8.7389   9.0706   9.1674  10.1249  13.1551  13.8477
    13.8799  14.0877

          k = 0.0500 0.2500 0.2500 (  5097 PWs)   bands (ev):

   -46.1349 -22.5072 -22.4029 -22.3748  -6.8215  -6.1693  -6.0361  -5.1617
    -5.1482  -5.1289  -5.0079  -4.9860   3.3618   6.5969   7.0065   7.1381
     7.9032   8.0589   8.5380   9.0103   9.3906   9.8418  13.1989  13.5674
    13.7747  14.9234

          k = 0.0500 0.2500 0.3500 (  5099 PWs)   bands (ev):

   -46.1346 -22.5064 -22.4195 -22.3742  -6.7103  -6.1352  -5.9837  -5.1714
    -5.1522  -5.1302  -5.0181  -4.9646   3.1730   6.4279   6.8934   7.2114
     7.6911   8.0320   8.4487   8.8212   9.4967   9.8479  13.5301  13.6295
    14.0283  14.6375

          k = 0.0500 0.2500 0.4500 (  5107 PWs)   bands (ev):

   -46.1344 -22.5060 -22.4298 -22.3738  -6.6461  -6.1135  -5.9423  -5.1776
    -5.1601  -5.1314  -5.0112  -4.9609   3.0658   6.2111   6.9156   7.2181
     7.5905   8.0402   8.3900   8.8081   9.5156   9.8124  13.5392  13.8457
    14.2222  14.4509

          k = 0.0500 0.3500 0.3500 (  5102 PWs)   bands (ev):

   -46.1342 -22.5234 -22.4187 -22.3735  -6.6079  -6.1060  -5.9241  -5.1703
    -5.1550  -5.1329  -5.0409  -4.9064   3.0119   6.2366   6.6433   7.1984
     7.6104   7.8909   8.3295   8.7726   9.4770   9.8855  13.5824  13.9296
    14.2176  14.9533

          k = 0.0500 0.3500 0.4500 (  5107 PWs)   bands (ev):

   -46.1340 -22.5229 -22.4289 -22.3731  -6.5781  -6.0742  -5.8706  -5.1713
    -5.1587  -5.1360  -5.0489  -4.8721   2.9262   6.1299   6.5005   7.2736
     7.4238   8.0693   8.2434   8.6462   9.2838   9.9528  13.8157  13.9247
    14.3801  15.0067

          k = 0.0500 0.4500 0.4500 (  5120 PWs)   bands (ev):

   -46.1338 -22.5333 -22.4284 -22.3727  -6.5596  -6.0179  -5.8218  -5.1740
    -5.1581  -5.1361  -5.0733  -4.8211   2.8411   5.9394   6.3909   7.2488
     7.4127   8.0040   8.2966   8.5808   8.9680  10.1279  13.7983  14.1578
    14.4886  15.3706

          k = 0.1500 0.1500 0.1500 (  5101 PWs)   bands (ev):

   -46.1354 -22.4903 -22.3866 -22.3863  -7.0207  -6.2138  -6.0950  -5.1498
    -5.1395  -5.1216  -4.9978  -4.9829   3.7288   6.7463   6.8019   7.3984
     8.1139   8.2671   8.8466   9.2349   9.3815   9.4170  12.9828  13.2236
    13.2610  15.4220

          k = 0.1500 0.1500 0.2500 (  5098 PWs)   bands (ev):

   -46.1350 -22.4896 -22.4032 -22.3858  -6.9006  -6.1710  -6.0565  -5.1636
    -5.1410  -5.1181  -5.0142  -4.9734   3.5067   6.6922   6.7947   7.2518
     7.9027   8.0806   8.8820   9.1543   9.3240   9.6044  13.1856  13.3574
    13.4989  15.0564

          k = 0.1500 0.1500 0.3500 (  5109 PWs)   bands (ev):

   -46.1347 -22.4889 -22.4199 -22.3852  -6.7820  -6.1249  -6.0144  -5.1759
    -5.1339  -5.1122  -5.0372  -4.9701   3.3046   6.4704   6.8008   7.1364
     7.7056   8.1261   8.6577   9.1878   9.3339   9.8084  13.1305  13.6770
    13.8347  14.5529

          k = 0.1500 0.1500 0.4500 (  5109 PWs)   bands (ev):

   -46.1345 -22.4885 -22.4301 -22.3848  -6.7104  -6.0949  -5.9850  -5.1808
    -5.1282  -5.1056  -5.0530  -4.9740   3.1903   6.2226   6.8003   7.1802
     7.6128   8.2386   8.4126   9.2622   9.3168   9.9109  13.0649  13.8909
    14.0702  14.3111

          k = 0.1500 0.2500 0.2500 (  5107 PWs)   bands (ev):

   -46.1347 -22.5067 -22.4025 -22.3851  -6.7533  -6.1600  -6.0387  -5.1657
    -5.1505  -5.1047  -4.9893  -4.9684   3.3554   6.5397   6.6614   7.0797
     7.6248   7.9061   8.8016   9.2085   9.4359   9.6952  13.2338  13.5518
    13.7288  14.8653

          k = 0.1500 0.2500 0.3500 (  5091 PWs)   bands (ev):

   -46.1344 -22.5060 -22.4191 -22.3845  -6.6479  -6.1424  -5.9926  -5.1686
    -5.1398  -5.0951  -4.9917  -4.9490   3.2172   6.4010   6.6232   6.8496
     7.3276   7.9532   8.8520   9.0236   9.4986   9.6961  13.3680  13.6589
    13.9693  14.8225

          k = 0.1500 0.2500 0.4500 (  5097 PWs)   bands (ev):

   -46.1341 -22.5055 -22.4293 -22.3841  -6.5883  -6.1352  -5.9522  -5.1673
    -5.1299  -5.0927  -4.9850  -4.9474   3.1331   6.2099   6.5929   6.7768
     7.2361   8.0505   8.6740   9.1061   9.4307   9.6771  13.3810  13.8340
    14.1662  14.8508

          k = 0.1500 0.3500 0.3500 (  5103 PWs)   bands (ev):

   -46.1340 -22.5230 -22.4183 -22.3838  -6.5329  -6.1323  -5.9684  -5.1654
    -5.1331  -5.0740  -4.9990  -4.8909   3.1158   6.2009   6.5335   6.6171
     7.0448   7.9230   8.7034   9.0565   9.3397   9.8389  13.4959  13.8388
    14.1349  15.1263

          k = 0.1500 0.3500 0.4500 (  5098 PWs)   bands (ev):

   -46.1338 -22.5225 -22.4285 -22.3834  -6.5025  -6.1230  -5.9195  -5.1611
    -5.1141  -5.0787  -5.0006  -4.8568   3.0599   6.1141   6.4255   6.5900
     6.8420   7.9946   8.6540   8.9585   9.1323   9.9416  13.7321  13.8331
    14.2849  15.3449

          k = 0.1500 0.4500 0.4500 (  5091 PWs)   bands (ev):

   -46.1336 -22.5329 -22.4280 -22.3830  -6.4789  -6.0789  -5.9001  -5.1586
    -5.0954  -5.0619  -5.0245  -4.8044   3.0077   5.9196   6.3468   6.5778
     6.7131   7.9962   8.3979   8.8639   9.0830  10.1087  13.7849  14.0344
    14.3833  15.6809

          k = 0.2500 0.2500 0.2500 (  5100 PWs)   bands (ev):

   -46.1344 -22.5060 -22.4019 -22.4016  -6.6516  -6.1425  -6.0343  -5.1552
    -5.1507  -5.0741  -4.9664  -4.9422   3.3271   6.3590   6.4457   6.9243
     7.4036   7.4850   8.9764   9.4414   9.4574   9.5949  13.2364  13.6961
    13.7047  14.8954

          k = 0.2500 0.2500 0.3500 (  5084 PWs)   bands (ev):

   -46.1340 -22.5053 -22.4183 -22.4011  -6.5667  -6.1297  -6.0053  -5.1495
    -5.1347  -5.0382  -4.9492  -4.9239   3.2775   6.2282   6.3020   6.6070
     7.1311   7.4500   8.8442   9.3782   9.4890   9.7373  13.3124  13.7486
    13.9540  15.0948

          k = 0.2500 0.2500 0.4500 (  5099 PWs)   bands (ev):

   -46.1338 -22.5049 -22.4285 -22.4007  -6.5252  -6.1278  -5.9686  -5.1452
    -5.1228  -5.0038  -4.9440  -4.9203   3.2382   6.1349   6.2109   6.3958
     7.0635   7.4911   8.6205   9.4037   9.4450   9.7956  13.4245  13.8297
    14.1481  15.3374

          k = 0.2500 0.3500 0.3500 (  5076 PWs)   bands (ev):

   -46.1337 -22.5223 -22.4176 -22.4004  -6.4258  -6.1557  -6.0283  -5.1424
    -5.1161  -4.9982  -4.9235  -4.8614   3.2959   5.9816   6.1366   6.3881
     6.8207   7.3349   8.3889   9.4545   9.6529   9.8324  13.4635  13.8877
    14.0850  15.4266

          k = 0.2500 0.3500 0.4500 (  5083 PWs)   bands (ev):

   -46.1335 -22.5218 -22.4278 -22.4000  -6.3966  -6.1710  -5.9867  -5.1357
    -5.0997  -4.9727  -4.9116  -4.8278   3.3078   5.9726   6.0144   6.1955
     6.6338   7.3619   8.0351   9.4725   9.6422   9.9447  13.7082  13.8715
    14.2290  15.7631

          k = 0.2500 0.4500 0.4500 (  5092 PWs)   bands (ev):

   -46.1333 -22.5322 -22.4273 -22.3996  -6.3491  -6.1595  -5.9982  -5.1315
    -5.0819  -4.9521  -4.8937  -4.7730   3.3360   5.7862   6.0252   6.0764
     6.4484   7.3355   7.5766   9.4682   9.6878  10.0907  13.8455  14.0095
    14.3187  16.0976

          k = 0.3500 0.3500 0.3500 (  5079 PWs)   bands (ev):

   -46.1333 -22.5215 -22.4170 -22.4168  -6.3641  -6.1416  -6.0655  -5.1185
    -5.1045  -4.9256  -4.8545  -4.8248   3.4890   5.7230   5.8293   6.2449
     6.7695   6.8343   7.7580   9.7273   9.8260   9.9696  13.6298  14.0592
    14.0611  15.7941

          k = 0.3500 0.3500 0.4500 (  5078 PWs)   bands (ev):

   -46.1331 -22.5211 -22.4271 -22.4165  -6.3566  -6.1415  -6.0441  -5.1083
    -5.0937  -4.8750  -4.8260  -4.7936   3.6109   5.6256   5.6816   6.0818
     6.6003   6.8150   7.2748   9.7833   9.8994  10.0851  13.8611  14.0141
    14.2189  16.1704

          k = 0.3500 0.4500 0.4500 (  5081 PWs)   bands (ev):

   -46.1329 -22.5315 -22.4266 -22.4160  -6.2520  -6.1945  -6.0772  -5.1048
    -5.0779  -4.8475  -4.7779  -4.7348   3.8040   5.4609   5.6185   5.9240
     6.4140   6.6514   6.7870   9.8778  10.0638  10.0889  14.0187  14.1290
    14.2894  16.5314

          k = 0.4500 0.4500 0.4500 (  5064 PWs)   bands (ev):

   -46.1327 -22.5310 -22.4262 -22.4262  -6.2767  -6.1308  -6.1165  -5.0899
    -5.0743  -4.7856  -4.7129  -4.7068   4.2967   5.2835   5.3675   5.8347
     5.8973   6.3981   6.5234  10.0607  10.0739  10.2463  14.1926  14.2653
    14.2686  16.8843

          k =-0.0500 0.1500 0.0500 (  5099 PWs)   bands (ev):

   -46.1358 -22.4911 -22.3765 -22.3764  -7.1727  -6.2707  -6.1406  -5.1335
    -5.1247  -5.1222  -4.9974  -4.9748   4.0864   6.8119   6.8131   7.1336
     8.5044   8.5280   9.0453   9.0973   9.4805   9.5024  12.4471  13.1714
    13.1895  14.6359

          k =-0.0500 0.2500 0.0500 (  5115 PWs)   bands (ev):

   -46.1354 -22.5084 -22.3758 -22.3758  -7.0105  -6.2378  -6.0805  -5.1414
    -5.1329  -5.1315  -5.0578  -4.9701   3.7078   6.7767   6.8939   7.0640
     8.2599   8.2799   9.0470   9.1591   9.5518   9.6141  12.4499  13.5493
    13.5757  14.6403

          k =-0.0500 0.3500 0.0500 (  5106 PWs)   bands (ev):

   -46.1351 -22.5255 -22.3752 -22.3752  -6.8327  -6.2143  -6.0115  -5.1708
    -5.1403  -5.1317  -5.1143  -4.9677   3.4056   6.4023   6.9815   7.1141
     8.0438   8.0445   8.9858   9.3956   9.6052   9.9860  12.4516  13.9133
    13.9453  14.2656

          k =-0.0500 0.4500 0.0500 (  5092 PWs)   bands (ev):

   -46.1349 -22.5361 -22.3748 -22.3748  -6.7099  -6.2093  -5.9621  -5.2086
    -5.1448  -5.1363  -5.1311  -4.9677   3.2459   6.0992   7.0414   7.2057
     7.8841   7.9162   8.9460   9.4874   9.6404  10.4367  12.4498  13.5283
    14.1324  14.1724

          k = 0.1500 0.0500 0.1500 (  5103 PWs)   bands (ev):

   -46.1356 -22.4796 -22.3870 -22.3867  -7.1127  -6.2311  -6.1145  -5.1490
    -5.1239  -5.1215  -5.0097  -4.9751   3.8849   6.7719   6.9622   7.2696
     8.2965   8.4437   8.9133   9.1514   9.3440   9.4632  12.9587  13.0288
    13.0530  15.1828

          k =-0.0500 0.2500 0.1500 (  5095 PWs)   bands (ev):

   -46.1352 -22.5079 -22.3862 -22.3754  -6.9376  -6.2094  -6.0688  -5.1537
    -5.1402  -5.1296  -5.0241  -4.9848   3.5696   6.6736   6.9279   7.2136
     8.0084   8.2636   8.7920   9.2025   9.3376   9.7437  12.7585  13.5534
    13.6016  14.9597

          k = 0.2500 0.0500 0.1500 (  5095 PWs)   bands (ev):

   -46.1352 -22.4790 -22.4037 -22.3862  -6.9902  -6.1788  -6.0653  -5.1595
    -5.1329  -5.1215  -5.0400  -4.9753   3.5949   6.7580   7.0098   7.2325
     8.0969   8.2002   8.8464   9.1352   9.3386   9.5818  13.0037  13.3128
    13.4031  15.1967

          k =-0.0500 0.3500 0.1500 (  5101 PWs)   bands (ev):

   -46.1349 -22.5250 -22.3855 -22.3748  -6.7690  -6.1857  -6.0140  -5.1786
    -5.1399  -5.1354  -5.0546  -4.9821   3.3092   6.3581   6.9327   7.2120
     7.8103   8.0656   8.8793   9.1918   9.4013  10.0398  12.7507  13.9047
    13.9508  14.4465

          k = 0.3500 0.0500 0.1500 (  5101 PWs)   bands (ev):

   -46.1349 -22.4783 -22.4203 -22.3856  -6.8678  -6.1127  -6.0202  -5.1744
    -5.1383  -5.1210  -5.0784  -4.9726   3.3499   6.4907   7.0387   7.3368
     7.8439   8.1886   8.5613   9.1841   9.3629   9.8852  12.9830  13.6902
    13.7732  14.3973

          k =-0.0500 0.4500 0.1500 (  5100 PWs)   bands (ev):

   -46.1347 -22.5356 -22.3851 -22.3744  -6.6565  -6.1756  -5.9768  -5.2007
    -5.1416  -5.1385  -5.0648  -4.9851   3.1665   6.0748   6.9359   7.3044
     7.6858   7.9303   8.9791   9.1697   9.4414  10.2696  12.7369  13.9144
    14.1416  14.1916

          k = 0.4500 0.0500 0.1500 (  5100 PWs)   bands (ev):

   -46.1347 -22.4779 -22.4306 -22.3852  -6.7930  -6.0550  -6.0022  -5.1896
    -5.1418  -5.1207  -5.0967  -4.9737   3.2171   6.2222   7.1447   7.4227
     7.7854   8.0064   8.4679   9.1728   9.3996  10.1522  12.9381  13.8988
    13.9385  14.0227

          k = 0.2500 0.0500 0.2500 (  5097 PWs)   bands (ev):

   -46.1349 -22.4783 -22.4032 -22.4027  -6.8915  -6.1341  -6.0104  -5.1589
    -5.1352  -5.1271  -5.0135  -5.0027   3.3885   6.7138   6.9461   7.2282
     7.7812   7.9109   8.8933   8.9707   9.5445   9.6351  13.2360  13.3698
    13.6627  15.0231

          k =-0.0500 0.3500 0.2500 (  5099 PWs)   bands (ev):

   -46.1346 -22.5242 -22.4021 -22.3742  -6.6777  -6.1460  -5.9874  -5.1728
    -5.1501  -5.1333  -5.0205  -4.9666   3.1572   6.3014   6.9154   7.1221
     7.7226   7.9795   8.4271   9.0572   9.4510   9.9504  13.1855  13.9310
    14.0351  14.7279

          k = 0.3500 0.0500 0.2500 (  5099 PWs)   bands (ev):

   -46.1346 -22.4777 -22.4196 -22.4022  -6.8040  -6.0650  -5.9583  -5.1640
    -5.1372  -5.1284  -5.0258  -4.9950   3.1984   6.4960   6.8468   7.2190
     7.6174   7.8993   8.5671   9.0592   9.5564   9.8231  13.2592  13.6964
    13.9369  14.6972

          k =-0.0500 0.4500 0.2500 (  5107 PWs)   bands (ev):

   -46.1343 -22.5347 -22.4017 -22.3737  -6.5933  -6.1203  -5.9571  -5.1859
    -5.1495  -5.1394  -5.0195  -4.9594   3.0394   6.0335   6.8955   7.1088
     7.6685   7.9203   8.4436   9.1008   9.4226   9.9994  13.1738  14.1524
    14.1868  14.6157

          k = 0.4500 0.0500 0.2500 (  5107 PWs)   bands (ev):

   -46.1344 -22.4773 -22.4298 -22.4018  -6.7573  -5.9986  -5.9360  -5.1729
    -5.1395  -5.1317  -5.0182  -4.9998   3.0894   6.2285   6.9332   7.0867
     7.6608   8.0195   8.2524   9.1435   9.4871   9.9507  13.2365  13.9488
    14.1240  14.4918

          k = 0.3500 0.0500 0.3500 (  5102 PWs)   bands (ev):

   -46.1342 -22.4770 -22.4189 -22.4187  -6.7614  -5.9820  -5.8948  -5.1584
    -5.1421  -5.1267  -5.0432  -4.9553   3.0502   6.4252   6.5866   7.1703
     7.3419   7.9303   8.5858   8.8035   9.5070   9.9557  13.5900  13.7357
    14.1232  14.9495

          k =-0.0500 0.4500 0.3500 (  5107 PWs)   bands (ev):

   -46.1340 -22.5339 -22.4182 -22.3731  -6.5634  -6.0599  -5.8864  -5.1759
    -5.1559  -5.1372  -5.0529  -4.8710   2.9155   5.9874   6.6070   7.1313
     7.6211   7.8735   8.2703   8.7910   9.2688  10.0055  13.5728  14.1591
    14.3525  15.1569

          k = 0.4500 0.0500 0.3500 (  5107 PWs)   bands (ev):

   -46.1340 -22.4766 -22.4290 -22.4183  -6.7451  -5.9046  -5.8626  -5.1611
    -5.1405  -5.1339  -5.0546  -4.9262   2.9611   6.1884   6.5986   7.0450
     7.3116   8.0989   8.3516   8.8158   9.3269  10.1028  13.6438  13.9443
    14.2571  15.0360

          k = 0.4500 0.0500 0.4500 (  5120 PWs)   bands (ev):

   -46.1338 -22.4762 -22.4285 -22.4285  -6.7465  -5.8282  -5.8150  -5.1600
    -5.1383  -5.1337  -5.0832  -4.8807   2.8821   6.0677   6.4815   7.0754
     7.0948   8.2484   8.4161   8.5630   9.0878  10.2742  13.9227  13.9502
    14.3424  15.3105

          k =-0.1500 0.2500 0.1500 (  5098 PWs)   bands (ev):

   -46.1350 -22.5075 -22.3859 -22.3857  -6.8659  -6.1881  -6.0623  -5.1621
    -5.1485  -5.1165  -4.9996  -4.9856   3.4907   6.6689   6.6909   7.2635
     7.9214   8.0857   8.6936   9.2892   9.4374   9.6317  12.9537  13.5500
    13.6060  15.0812

          k =-0.1500 0.3500 0.1500 (  5109 PWs)   bands (ev):

   -46.1347 -22.5246 -22.3852 -22.3850  -6.7023  -6.1661  -6.0280  -5.1813
    -5.1452  -5.1032  -5.0213  -4.9828   3.2722   6.3602   6.6189   7.1721
     7.7997   8.0600   8.5524   9.3033   9.4860   9.8955  12.8920  13.8894
    13.9204  14.6040

          k =-0.1500 0.4500 0.1500 (  5109 PWs)   bands (ev):

   -46.1345 -22.5351 -22.3847 -22.3846  -6.5951  -6.1555  -6.0059  -5.1915
    -5.1430  -5.0877  -5.0373  -4.9883   3.1473   6.0778   6.5674   7.2198
     7.7482   8.0232   8.5207   9.2996   9.5157  10.0239  12.8364  14.1065
    14.1156  14.3920

          k = 0.2500 0.1500 0.2500 (  5107 PWs)   bands (ev):

   -46.1347 -22.4889 -22.4027 -22.4023  -6.8008  -6.1378  -6.0194  -5.1612
    -5.1468  -5.1036  -4.9940  -4.9757   3.3729   6.5887   6.7018   7.0707
     7.5585   7.8797   8.9820   9.1878   9.4871   9.5615  13.2894  13.4763
    13.6367  14.8748

          k =-0.1500 0.3500 0.2500 (  5091 PWs)   bands (ev):

   -46.1343 -22.5238 -22.4017 -22.3845  -6.6062  -6.1444  -6.0194  -5.1725
    -5.1465  -5.0834  -4.9924  -4.9515   3.1999   6.2900   6.5211   6.8834
     7.5022   7.9134   8.5839   9.3054   9.4952   9.7493  13.1693  13.8592
    13.9765  14.8558

          k = 0.3500 0.1500 0.2500 (  5091 PWs)   bands (ev):

   -46.1344 -22.4883 -22.4191 -22.4018  -6.7137  -6.0904  -5.9790  -5.1628
    -5.1392  -5.0834  -4.9930  -4.9730   3.2344   6.4458   6.6027   6.8172
     7.3762   7.8728   8.8474   9.1919   9.4453   9.7394  13.2655  13.6965
    13.9049  14.8303

          k =-0.1500 0.4500 0.2500 (  5097 PWs)   bands (ev):

   -46.1341 -22.5343 -22.4013 -22.3840  -6.5191  -6.1257  -6.0093  -5.1754
    -5.1421  -5.0637  -5.0007  -4.9442   3.1044   6.0410   6.4070   6.8760
     7.4889   7.9873   8.4132   9.3565   9.4583   9.7594  13.1477  14.0780
    14.1606  14.9359

          k = 0.4500 0.1500 0.2500 (  5097 PWs)   bands (ev):

   -46.1341 -22.4878 -22.4293 -22.4014  -6.6683  -6.0542  -5.9500  -5.1625
    -5.1323  -5.0653  -4.9934  -4.9790   3.1495   6.2241   6.5321   6.7773
     7.3415   7.9300   8.6735   9.2488   9.3531   9.8153  13.2482  13.8893
    14.1106  14.8606

          k = 0.3500 0.1500 0.3500 (  5103 PWs)   bands (ev):

   -46.1340 -22.4876 -22.4185 -22.4182  -6.6705  -6.0244  -5.9423  -5.1534
    -5.1321  -5.0607  -4.9892  -4.9395   3.1498   6.3952   6.4307   6.5965
     7.0032   7.8522   8.8749   9.0755   9.2504   9.9584  13.4908  13.7495
    14.0623  15.1117

          k =-0.1500 0.4500 0.3500 (  5098 PWs)   bands (ev):

   -46.1338 -22.5334 -22.4178 -22.3834  -6.4827  -6.0975  -5.9562  -5.1643
    -5.1245  -5.0505  -5.0186  -4.8550   3.0481   5.9700   6.4596   6.5389
     7.0199   7.9489   8.5114   9.0419   9.2189   9.9560  13.5286  14.0489
    14.2724  15.4165

          k = 0.4500 0.1500 0.3500 (  5098 PWs)   bands (ev):

   -46.1338 -22.4872 -22.4285 -22.4179  -6.6557  -5.9721  -5.9156  -5.1497
    -5.1201  -5.0460  -5.0000  -4.9118   3.0921   6.1792   6.4351   6.4942
     6.8900   7.8883   8.7189   9.0400   9.1332  10.0926  13.5970  13.8822
    14.2071  15.3510

          k = 0.4500 0.1500 0.4500 (  5091 PWs)   bands (ev):

   -46.1336 -22.4867 -22.4281 -22.4280  -6.6590  -5.9063  -5.8943  -5.1447
    -5.0993  -5.0327  -5.0201  -4.8664   3.0489   6.0570   6.4065   6.4834
     6.5955   7.9103   8.5136   9.0064   9.0152  10.2687  13.8557  13.9016
    14.2966  15.6571

          k =-0.2500 0.3500 0.2500 (  5084 PWs)   bands (ev):

   -46.1340 -22.5230 -22.4012 -22.4009  -6.5025  -6.1424  -6.0494  -5.1566
    -5.1360  -5.0357  -4.9496  -4.9153   3.2576   6.1286   6.2848   6.5971
     7.3401   7.3628   8.7159   9.4624   9.5795   9.6611  13.2402  13.8527
    13.9706  15.1054

          k =-0.2500 0.4500 0.2500 (  5099 PWs)   bands (ev):

   -46.1338 -22.5335 -22.4007 -22.4005  -6.4147  -6.1352  -6.0588  -5.1551
    -5.1268  -4.9937  -4.9563  -4.9009   3.2048   5.9929   6.0631   6.5303
     7.3198   7.3842   8.4857   9.4150   9.6082   9.7139  13.2978  14.0060
    14.1662  15.3850

          k = 0.3500 0.2500 0.3500 (  5076 PWs)   bands (ev):

   -46.1337 -22.5046 -22.4177 -22.4175  -6.5201  -6.0854  -6.0084  -5.1302
    -5.1239  -4.9835  -4.9044  -4.9041   3.3182   6.0661   6.0663   6.4060
     6.8651   7.2429   8.4267   9.4921   9.5367   9.9635  13.4642  13.8566
    14.0483  15.4194

          k =-0.2500 0.4500 0.3500 (  5083 PWs)   bands (ev):

   -46.1335 -22.5327 -22.4171 -22.4000  -6.3553  -6.1498  -6.0437  -5.1390
    -5.1021  -4.9657  -4.9163  -4.8235   3.2925   5.8106   6.0663   6.2145
     6.7597   7.3187   8.0206   9.4469   9.6909   9.9309  13.5946  14.0081
    14.2293  15.7811

          k = 0.4500 0.2500 0.3500 (  5083 PWs)   bands (ev):

   -46.1335 -22.5042 -22.4278 -22.4172  -6.5084  -6.0634  -5.9852  -5.1249
    -5.1093  -4.9373  -4.9046  -4.8765   3.3309   5.9295   6.0517   6.1719
     6.7479   7.2396   8.0732   9.5220   9.5418  10.0866  13.6622  13.8882
    14.1935  15.7581

          k = 0.4500 0.2500 0.4500 (  5092 PWs)   bands (ev):

   -46.1333 -22.5037 -22.4274 -22.4273  -6.5153  -6.0048  -5.9934  -5.1179
    -5.0936  -4.9001  -4.8890  -4.8380   3.3765   5.8961   5.9175   6.0472
     6.5221   7.2119   7.6531   9.5551   9.5595  10.2600  13.8831  13.9448
    14.2671  16.0798

          k =-0.3500 0.4500 0.3500 (  5078 PWs)   bands (ev):

   -46.1331 -22.5320 -22.4165 -22.4164  -6.2569  -6.1834  -6.0976  -5.1155
    -5.0884  -4.8929  -4.8201  -4.7783   3.5877   5.5328   5.8243   6.0044
     6.6260   6.8276   7.2675   9.8119   9.9494   9.9747  13.8059  14.0894
    14.2291  16.1723

          k = 0.4500 0.3500 0.4500 (  5081 PWs)   bands (ev):

   -46.1329 -22.5206 -22.4266 -22.4266  -6.3692  -6.0852  -6.0732  -5.0911
    -5.0909  -4.8130  -4.7761  -4.7731   3.8375   5.5006   5.5035   5.9631
     6.5216   6.6327   6.7164   9.9072   9.9163  10.2515  14.0456  14.1106
    14.2550  16.5268

     the Fermi energy is    10.3429 ev

!    total energy              =    -364.95427231 Ry
     Harris-Foulkes estimate   =    -364.95427231 Ry
     estimated scf accuracy    <          8.0E-09 Ry

     The total energy is the sum of the following terms:

     one-electron contribution =     -84.17840680 Ry
     hartree contribution      =      71.39066730 Ry
     xc contribution           =     -85.82115365 Ry
     ewald contribution        =    -266.35151975 Ry
     smearing contrib. (-TS)   =       0.00614060 Ry

     convergence has been achieved in  13 iterations

     Forces acting on atoms (cartesian axes, Ry/au):

     atom    1 type  1   force =     0.00000000    0.01837889    0.00000000
     atom    2 type  2   force =     0.00000000   -0.03765607    0.00000000
     atom    3 type  3   force =     0.00000000    0.00382231    0.00000000
     atom    4 type  3   force =     0.00000000    0.01163256    0.00000000
     atom    5 type  3   force =     0.00000000    0.00382231    0.00000000

     Total force =     0.039781     Total SCF correction =     0.000032


     Computing stress (Cartesian axis) and pressure

          total   stress  (Ry/bohr**3)                   (kbar)     P=   12.33
  -0.00001556   0.00000000   0.00000000         -2.29      0.00      0.00
   0.00000000   0.00028252   0.00000000          0.00     41.56      0.00
   0.00000000   0.00000000  -0.00001556          0.00      0.00     -2.29


     BFGS Geometry Optimization

     number of scf cycles    =   1
     number of bfgs steps    =   0

     energy   new            =    -364.9542723053 Ry

     new trust radius        =       0.0376560736 bohr
     new conv_thr            =       0.0000000100 Ry


ATOMIC_POSITIONS (crystal)
Pb       0.000000000   0.000000000   0.000000000    0   0   0
Ti       0.500000000   0.542979190   0.500000000
O        0.500000000   0.500509642   0.000000000
O        0.500000000   0.001551008   0.500000000
O        0.000000000   0.500509642   0.500000000



     Writing output data file PbTiO3.save/
     NEW-OLD atomic charge density approx. for the potential

     Check: negative core charge=   -0.000005

     total cpu time spent up to now is      514.1 secs

     Self-consistent Calculation

     iteration #  1     ecut=    80.00 Ry     beta= 0.70
     Davidson diagonalization with overlap
     ethr =  1.00E-06,  avg # of iterations =  4.8

     total cpu time spent up to now is      578.9 secs

     total energy              =    -364.95538023 Ry
     Harris-Foulkes estimate   =    -364.95568320 Ry
     estimated scf accuracy    <       0.00044834 Ry

     iteration #  2     ecut=    80.00 Ry     beta= 0.70
     Davidson diagonalization with overlap
     ethr =  1.02E-06,  avg # of iterations =  4.3

     total cpu time spent up to now is      621.3 secs

     total energy              =    -364.95530533 Ry
     Harris-Foulkes estimate   =    -364.95572833 Ry
     estimated scf accuracy    <       0.00100161 Ry

     iteration #  3     ecut=    80.00 Ry     beta= 0.70
     Davidson diagonalization with overlap
     ethr =  1.02E-06,  avg # of iterations =  3.7

     total cpu time spent up to now is      659.6 secs

     total energy              =    -364.95551965 Ry
     Harris-Foulkes estimate   =    -364.95557312 Ry
     estimated scf accuracy    <       0.00015795 Ry

     iteration #  4     ecut=    80.00 Ry     beta= 0.70
     Davidson diagonalization with overlap
     ethr =  3.59E-07,  avg # of iterations =  3.0

     total cpu time spent up to now is      692.0 secs

     total energy              =    -364.95554340 Ry
     Harris-Foulkes estimate   =    -364.95554543 Ry
     estimated scf accuracy    <       0.00000387 Ry

     iteration #  5     ecut=    80.00 Ry     beta= 0.70
     Davidson diagonalization with overlap
     ethr =  8.79E-09,  avg # of iterations =  3.3

     total cpu time spent up to now is      732.1 secs

     total energy              =    -364.95554447 Ry
     Harris-Foulkes estimate   =    -364.95554567 Ry
     estimated scf accuracy    <       0.00000314 Ry

     iteration #  6     ecut=    80.00 Ry     beta= 0.70
     Davidson diagonalization with overlap
     ethr =  7.14E-09,  avg # of iterations =  2.7

     total cpu time spent up to now is      764.6 secs

     total energy              =    -364.95554509 Ry
     Harris-Foulkes estimate   =    -364.95554517 Ry
     estimated scf accuracy    <       0.00000027 Ry

     iteration #  7     ecut=    80.00 Ry     beta= 0.70
     Davidson diagonalization with overlap
     ethr =  6.12E-10,  avg # of iterations =  2.9

     total cpu time spent up to now is      797.8 secs

     End of self-consistent calculation

          k = 0.0500 0.0500 0.0500 (  5074 PWs)   bands (ev):

   -46.1856 -22.4998 -22.4264 -22.4263  -7.2665  -6.2845  -6.1904  -5.1219
    -5.1079  -5.1076  -4.9699  -4.9572   4.3966   6.7692   6.8067   6.9415
     8.7779   8.8043   9.1143   9.2395   9.4669   9.4686  12.4090  12.7914
    12.7965  14.5773

          k = 0.0500 0.0500 0.1500 (  5099 PWs)   bands (ev):

   -46.1854 -22.4995 -22.4368 -22.4260  -7.1853  -6.2510  -6.1609  -5.1295
    -5.1155  -5.1072  -5.0005  -4.9557   4.1053   6.8220   6.8835   7.1184
     8.5612   8.7243   9.0743   9.1336   9.3195   9.4601  12.7251  12.8001
    12.9236  14.7438

          k = 0.0500 0.0500 0.2500 (  5115 PWs)   bands (ev):

   -46.1851 -22.4988 -22.4536 -22.4254  -7.0498  -6.1923  -6.1137  -5.1424
    -5.1278  -5.1064  -5.0566  -4.9508   3.7418   6.8218   6.9995   7.1367
     8.4066   8.4935   8.9967   9.0683   9.2642   9.5278  12.7994  13.1883
    13.2731  14.7462

          k = 0.0500 0.0500 0.3500 (  5106 PWs)   bands (ev):

   -46.1847 -22.4982 -22.4703 -22.4248  -6.9082  -6.1245  -6.0695  -5.1622
    -5.1408  -5.1110  -5.1055  -4.9478   3.4568   6.4685   7.1794   7.2982
     8.1170   8.2228   8.9359   9.0252   9.3782   9.8913  12.8004  13.6073
    13.6768  14.1950

          k = 0.0500 0.0500 0.4500 (  5092 PWs)   bands (ev):

   -46.1845 -22.4978 -22.4806 -22.4244  -6.8171  -6.0710  -6.0499  -5.1901
    -5.1499  -5.1319  -5.1050  -4.9472   3.3087   6.1840   7.3666   7.5503
     7.8349   7.9137   8.8970   9.0400   9.4315  10.3282  12.7908  13.4810
    13.8552  13.9457

          k = 0.0500 0.1500 0.1500 (  5103 PWs)   bands (ev):

   -46.1852 -22.5101 -22.4364 -22.4256  -7.0945  -6.2287  -6.1337  -5.1302
    -5.1253  -5.1140  -4.9929  -4.9755   3.8877   6.7766   6.8856   7.2847
     8.3157   8.5450   8.9210   9.1867   9.2747   9.5342  12.7270  13.0598
    13.1542  14.8745

          k = 0.0500 0.1500 0.2500 (  5095 PWs)   bands (ev):

   -46.1849 -22.5094 -22.4531 -22.4250  -6.9636  -6.1774  -6.0933  -5.1473
    -5.1335  -5.1134  -5.0239  -4.9671   3.5964   6.7318   7.0009   7.2221
     8.1359   8.3615   8.7925   9.0560   9.2360   9.6933  13.0516  13.1941
    13.4435  14.9345

          k = 0.0500 0.1500 0.3500 (  5101 PWs)   bands (ev):

   -46.1845 -22.5088 -22.4698 -22.4243  -6.8295  -6.1252  -6.0485  -5.1667
    -5.1417  -5.1130  -5.0514  -4.9636   3.3522   6.4551   7.1025   7.2816
     7.8825   8.1856   8.7381   9.0647   9.2192   9.9402  13.0518  13.6029
    13.7954  14.3574

          k = 0.0500 0.1500 0.4500 (  5100 PWs)   bands (ev):

   -46.1843 -22.5083 -22.4801 -22.4240  -6.7449  -6.0924  -6.0176  -5.1822
    -5.1494  -5.1127  -5.0606  -4.9659   3.2206   6.1885   7.2169   7.4389
     7.7157   7.9183   8.7820   9.1243   9.1918  10.1387  13.0356  13.8410
    13.8791  14.0376

          k = 0.0500 0.2500 0.2500 (  5097 PWs)   bands (ev):

   -46.1845 -22.5265 -22.4524 -22.4243  -6.8239  -6.1563  -6.0502  -5.1520
    -5.1368  -5.1208  -4.9995  -4.9809   3.3763   6.6125   7.0036   7.1394
     7.9189   8.0703   8.5664   9.0074   9.4207   9.8289  13.1713  13.4614
    13.7193  14.9134

          k = 0.0500 0.2500 0.3500 (  5099 PWs)   bands (ev):

   -46.1842 -22.5258 -22.4690 -22.4237  -6.7119  -6.1222  -5.9952  -5.1614
    -5.1408  -5.1222  -5.0104  -4.9599   3.1863   6.4245   6.8803   7.2184
     7.7021   8.0348   8.4546   8.8518   9.5311   9.8415  13.4356  13.5973
    13.9849  14.6422

          k = 0.0500 0.2500 0.4500 (  5107 PWs)   bands (ev):

   -46.1840 -22.5253 -22.4793 -22.4233  -6.6479  -6.0982  -5.9536  -5.1685
    -5.1479  -5.1234  -5.0038  -4.9564   3.0786   6.1883   6.9118   7.2094
     7.6245   8.0261   8.3860   8.8532   9.5444   9.8200  13.4340  13.8301
    14.1803  14.4600

          k = 0.0500 0.3500 0.3500 (  5102 PWs)   bands (ev):

   -46.1839 -22.5427 -22.4682 -22.4230  -6.6186  -6.0830  -5.9363  -5.1600
    -5.1435  -5.1247  -5.0327  -4.9029   3.0260   6.2605   6.6069   7.2223
     7.6078   7.8964   8.3412   8.7663   9.5070   9.8824  13.5652  13.8357
    14.1821  14.9421

          k = 0.0500 0.3500 0.4500 (  5107 PWs)   bands (ev):

   -46.1837 -22.5422 -22.4784 -22.4226  -6.5896  -6.0477  -5.8828  -5.1614
    -5.1465  -5.1282  -5.0410  -4.8690   2.9385   6.1292   6.4825   7.2679
     7.4540   8.0646   8.2365   8.6584   9.3054   9.9677  13.8005  13.8354
    14.3446  15.0103

          k = 0.0500 0.4500 0.4500 (  5120 PWs)   bands (ev):

   -46.1835 -22.5526 -22.4779 -22.4222  -6.5750  -5.9863  -5.8350  -5.1634
    -5.1457  -5.1286  -5.0650  -4.8187   2.8532   5.9562   6.3586   7.2749
     7.3983   8.0289   8.2812   8.5693   8.9906  10.1439  13.7925  14.0687
    14.4597  15.3540

          k = 0.1500 0.1500 0.1500 (  5101 PWs)   bands (ev):

   -46.1850 -22.5097 -22.4361 -22.4358  -7.0183  -6.2048  -6.1107  -5.1387
    -5.1311  -5.1131  -4.9888  -4.9775   3.7407   6.7563   6.7974   7.3972
     8.1584   8.2845   8.9143   9.2465   9.3585   9.4161  12.9526  13.1401
    13.1671  15.3687

          k = 0.1500 0.1500 0.2500 (  5098 PWs)   bands (ev):

   -46.1847 -22.5090 -22.4527 -22.4353  -6.8947  -6.1646  -6.0712  -5.1538
    -5.1319  -5.1092  -5.0054  -4.9673   3.5178   6.6949   6.7953   7.2508
     7.9266   8.0857   8.9175   9.1668   9.3400   9.5962  13.1075  13.3230
    13.4385  15.0632

          k = 0.1500 0.1500 0.3500 (  5109 PWs)   bands (ev):

   -46.1843 -22.5084 -22.4693 -22.4347  -6.7721  -6.1224  -6.0271  -5.1668
    -5.1250  -5.1023  -5.0287  -4.9635   3.3155   6.4553   6.8015   7.1382
     7.7145   8.1404   8.6517   9.2294   9.3534   9.8072  13.0494  13.6569
    13.7845  14.5569

          k = 0.1500 0.1500 0.4500 (  5109 PWs)   bands (ev):

   -46.1841 -22.5079 -22.4796 -22.4343  -6.6978  -6.0955  -5.9960  -5.1722
    -5.1199  -5.0939  -5.0453  -4.9672   3.2016   6.1946   6.7988   7.1898
     7.6142   8.2553   8.4069   9.2952   9.3412   9.9143  12.9869  13.8760
    14.0204  14.3150

          k = 0.1500 0.2500 0.2500 (  5107 PWs)   bands (ev):

   -46.1843 -22.5261 -22.4520 -22.4346  -6.7527  -6.1485  -6.0530  -5.1559
    -5.1404  -5.0958  -4.9803  -4.9636   3.3690   6.5572   6.6731   7.0739
     7.6235   7.8954   8.8672   9.1871   9.4604   9.6769  13.2123  13.4743
    13.6710  14.8615

          k = 0.1500 0.2500 0.3500 (  5091 PWs)   bands (ev):

   -46.1840 -22.5254 -22.4686 -22.4340  -6.6448  -6.1330  -6.0043  -5.1590
    -5.1305  -5.0844  -4.9836  -4.9445   3.2295   6.4017   6.6282   6.8402
     7.3391   7.9373   8.8544   9.0583   9.5272   9.6852  13.3099  13.6259
    13.9208  14.8174

          k = 0.1500 0.2500 0.4500 (  5097 PWs)   bands (ev):

   -46.1838 -22.5249 -22.4788 -22.4336  -6.5843  -6.1256  -5.9631  -5.1581
    -5.1216  -5.0796  -4.9782  -4.9429   3.1449   6.1884   6.5869   6.7842
     7.2565   8.0340   8.6585   9.1484   9.4547   9.6823  13.3055  13.8211
    14.1191  14.8563

          k = 0.1500 0.3500 0.3500 (  5103 PWs)   bands (ev):

   -46.1837 -22.5423 -22.4678 -22.4333  -6.5404  -6.1118  -5.9797  -5.1551
    -5.1231  -5.0642  -4.9909  -4.8875   3.1297   6.2286   6.5249   6.6097
     7.0329   7.9034   8.7474   9.0484   9.3418   9.8529  13.4771  13.7691
    14.0924  15.1154

          k = 0.1500 0.3500 0.4500 (  5098 PWs)   bands (ev):

   -46.1835 -22.5418 -22.4780 -22.4329  -6.5107  -6.0999  -5.9305  -5.1510
    -5.1057  -5.0655  -4.9943  -4.8538   3.0721   6.1181   6.4149   6.5796
     6.8544   7.9689   8.6626   8.9893   9.1306   9.9616  13.6785  13.8004
    14.2446  15.3483

          k = 0.1500 0.4500 0.4500 (  5091 PWs)   bands (ev):

   -46.1832 -22.5521 -22.4775 -22.4325  -6.4929  -6.0493  -5.9112  -5.1481
    -5.0854  -5.0496  -5.0187  -4.8022   3.0199   5.9403   6.3244   6.5837
     6.6964   7.9715   8.4180   8.8970   9.0661  10.1304  13.7698  13.9625
    14.3495  15.6828

          k = 0.2500 0.2500 0.2500 (  5100 PWs)   bands (ev):

   -46.1840 -22.5254 -22.4514 -22.4511  -6.6454  -6.1348  -6.0482  -5.1452
    -5.1417  -5.0648  -4.9566  -4.9378   3.3389   6.3832   6.4489   6.9348
     7.3858   7.4549   9.0376   9.4271   9.4518   9.6007  13.2211  13.6397
    13.6468  14.8836

          k = 0.2500 0.2500 0.3500 (  5084 PWs)   bands (ev):

   -46.1837 -22.5247 -22.4678 -22.4506  -6.5543  -6.1278  -6.0169  -5.1402
    -5.1257  -5.0281  -4.9394  -4.9196   3.2877   6.2385   6.3133   6.5995
     7.1250   7.4190   8.8615   9.3981   9.4947   9.7365  13.2837  13.7087
    13.9053  15.0850

          k = 0.2500 0.2500 0.4500 (  5099 PWs)   bands (ev):

   -46.1835 -22.5242 -22.4781 -22.4502  -6.5093  -6.1290  -5.9790  -5.1362
    -5.1141  -4.9915  -4.9373  -4.9146   3.2475   6.1334   6.1968   6.4110
     7.0660   7.4608   8.6230   9.4228   9.4620   9.7951  13.3730  13.8133
    14.1017  15.3408

          k = 0.2500 0.3500 0.3500 (  5076 PWs)   bands (ev):

   -46.1833 -22.5415 -22.4671 -22.4499  -6.4246  -6.1422  -6.0389  -5.1319
    -5.1074  -4.9864  -4.9161  -4.8583   3.3088   6.0105   6.1370   6.3860
     6.7901   7.3004   8.4056   9.4823   9.6392   9.8535  13.4424  13.8339
    14.0380  15.4173

          k = 0.2500 0.3500 0.4500 (  5083 PWs)   bands (ev):

   -46.1831 -22.5411 -22.4773 -22.4495  -6.3942  -6.1577  -5.9964  -5.1255
    -5.0916  -4.9576  -4.9068  -4.8247   3.3191   5.9830   6.0264   6.1792
     6.6206   7.3240   8.0448   9.5071   9.6286   9.9659  13.6649  13.8403
    14.1852  15.7633

          k = 0.2500 0.4500 0.4500 (  5092 PWs)   bands (ev):

   -46.1829 -22.5514 -22.4768 -22.4491  -6.3598  -6.1326  -6.0076  -5.1210
    -5.0737  -4.9354  -4.8901  -4.7710   3.3486   5.8223   6.0144   6.0641
     6.4167   7.3007   7.5889   9.5038   9.6717  10.1163  13.8217  13.9526
    14.2797  16.1007

          k = 0.3500 0.3500 0.3500 (  5079 PWs)   bands (ev):

   -46.1830 -22.5408 -22.4665 -22.4663  -6.3485  -6.1403  -6.0757  -5.1075
    -5.0968  -4.9126  -4.8472  -4.8223   3.4999   5.7470   5.8276   6.2491
     6.7406   6.7891   7.7649   9.7571   9.8436   9.9611  13.6056  14.0133
    14.0154  15.7893

          k = 0.3500 0.3500 0.4500 (  5078 PWs)   bands (ev):

   -46.1828 -22.5404 -22.4766 -22.4660  -6.3348  -6.1461  -6.0529  -5.0981
    -5.0854  -4.8597  -4.8217  -4.7901   3.6195   5.6292   5.7017   6.0719
     6.5763   6.7743   7.2777   9.8123   9.9179  10.0750  13.8258  13.9791
    14.1767  16.1722

          k = 0.3500 0.4500 0.4500 (  5081 PWs)   bands (ev):

   -46.1826 -22.5507 -22.4761 -22.4656  -6.2399  -6.1890  -6.0856  -5.0940
    -5.0701  -4.8292  -4.7754  -4.7329   3.8167   5.4842   5.6057   5.9200
     6.3896   6.6526   6.7471   9.9098  10.0570  10.1076  13.9899  14.0828
    14.2475  16.5375

          k = 0.4500 0.4500 0.4500 (  5064 PWs)   bands (ev):

   -46.1824 -22.5503 -22.4757 -22.4757  -6.2503  -6.1385  -6.1244  -5.0788
    -5.0668  -4.7664  -4.7109  -4.7050   4.3077   5.3011   5.3648   5.8254
     5.9003   6.3771   6.4731  10.0895  10.1017  10.2309  14.1602  14.2248
    14.2272  16.8939

          k =-0.0500 0.1500 0.0500 (  5099 PWs)   bands (ev):

   -46.1854 -22.5105 -22.4260 -22.4259  -7.1737  -6.2598  -6.1572  -5.1214
    -5.1167  -5.1142  -4.9922  -4.9658   4.0995   6.8147   6.8227   7.1260
     8.5758   8.6054   9.0847   9.1055   9.4773   9.4913  12.4108  13.0495
    13.0634  14.5791

          k =-0.0500 0.2500 0.0500 (  5115 PWs)   bands (ev):

   -46.1851 -22.5277 -22.4253 -22.4253  -7.0156  -6.2231  -6.0984  -5.1332
    -5.1241  -5.1203  -5.0515  -4.9607   3.7249   6.7839   6.9158   7.0721
     8.3050   8.3356   9.0555   9.1664   9.5374   9.6072  12.4136  13.4452
    13.4668  14.5824

          k =-0.0500 0.3500 0.0500 (  5106 PWs)   bands (ev):

   -46.1847 -22.5448 -22.4247 -22.4247  -6.8443  -6.1935  -6.0314  -5.1616
    -5.1325  -5.1195  -5.1071  -4.9580   3.4278   6.4020   7.0230   7.1473
     8.0589   8.0709   8.9935   9.3842   9.5892   9.9796  12.4153  13.8233
    13.8495  14.2639

          k =-0.0500 0.4500 0.0500 (  5092 PWs)   bands (ev):

   -46.1845 -22.5553 -22.4243 -22.4243  -6.7282  -6.1821  -5.9839  -5.1977
    -5.1371  -5.1290  -5.1190  -4.9576   3.2718   6.0940   7.1029   7.2655
     7.8788   7.9058   8.9533   9.4726   9.6239  10.4266  12.4136  13.5292
    14.0505  14.0820

          k = 0.1500 0.0500 0.1500 (  5103 PWs)   bands (ev):

   -46.1852 -22.4991 -22.4365 -22.4362  -7.1082  -6.2242  -6.1298  -5.1375
    -5.1159  -5.1134  -5.0007  -4.9695   3.8952   6.7732   6.9476   7.2690
     8.3732   8.4646   8.9813   9.1462   9.3194   9.4911  12.8877  12.9394
    12.9929  15.0601

          k =-0.0500 0.2500 0.1500 (  5095 PWs)   bands (ev):

   -46.1849 -22.5272 -22.4357 -22.4249  -6.9416  -6.1951  -6.0857  -5.1449
    -5.1285  -5.1214  -5.0184  -4.9758   3.5857   6.6865   6.9463   7.2095
     8.0440   8.3094   8.7965   9.2206   9.3254   9.7331  12.7261  13.4537
    13.5165  14.9032

          k = 0.2500 0.0500 0.1500 (  5095 PWs)   bands (ev):

   -46.1849 -22.4985 -22.4531 -22.4357  -6.9821  -6.1749  -6.0800  -5.1491
    -5.1246  -5.1135  -5.0306  -4.9687   3.6047   6.7507   7.0085   7.2248
     8.1229   8.2468   8.8563   9.1527   9.3357   9.6078  12.9120  13.2597
    13.3671  15.0900

          k =-0.0500 0.3500 0.1500 (  5101 PWs)   bands (ev):

   -46.1845 -22.5443 -22.4350 -22.4243  -6.7798  -6.1648  -6.0323  -5.1688
    -5.1296  -5.1258  -5.0487  -4.9727   3.3294   6.3681   6.9656   7.2256
     7.8254   8.0908   8.8672   9.2099   9.3841  10.0269  12.7188  13.8271
    13.8685  14.4408

          k = 0.3500 0.0500 0.1500 (  5101 PWs)   bands (ev):

   -46.1845 -22.4978 -22.4698 -22.4351  -6.8552  -6.1132  -6.0336  -5.1654
    -5.1299  -5.1130  -5.0671  -4.9655   3.3601   6.4695   7.0472   7.3245
     7.8474   8.2115   8.5944   9.2056   9.3669   9.9033  12.8960  13.6529
    13.7389  14.4057

          k =-0.0500 0.4500 0.1500 (  5100 PWs)   bands (ev):

   -46.1843 -22.5548 -22.4346 -22.4239  -6.6740  -6.1480  -5.9965  -5.1897
    -5.1339  -5.1265  -5.0591  -4.9752   3.1899   6.0783   6.9850   7.3378
     7.6897   7.9244   8.9639   9.1873   9.4227  10.2551  12.7055  13.9096
    14.0640  14.1205

          k = 0.4500 0.0500 0.1500 (  5100 PWs)   bands (ev):

   -46.1843 -22.4974 -22.4801 -22.4347  -6.7773  -6.0599  -6.0136  -5.1812
    -5.1339  -5.1127  -5.0837  -4.9666   3.2279   6.1924   7.1549   7.4231
     7.7680   7.9851   8.5526   9.1929   9.4066  10.1609  12.8624  13.8943
    13.9177  13.9808

          k = 0.2500 0.0500 0.2500 (  5097 PWs)   bands (ev):

   -46.1845 -22.4978 -22.4526 -22.4522  -6.8781  -6.1348  -6.0249  -5.1499
    -5.1271  -5.1188  -5.0021  -4.9957   3.3964   6.7047   6.9498   7.2153
     7.8454   7.9205   8.8494   8.9900   9.5400   9.6687  13.1851  13.3111
    13.6367  15.0121

          k =-0.0500 0.3500 0.2500 (  5099 PWs)   bands (ev):

   -46.1842 -22.5435 -22.4517 -22.4237  -6.6879  -6.1254  -6.0019  -5.1626
    -5.1384  -5.1252  -5.0121  -4.9617   3.1743   6.3235   6.9030   7.1441
     7.7294   7.9952   8.4289   9.0423   9.4850   9.9313  13.1605  13.8376
    13.9891  14.7151

          k = 0.3500 0.0500 0.2500 (  5099 PWs)   bands (ev):

   -46.1842 -22.4972 -22.4690 -22.4517  -6.7852  -6.0710  -5.9720  -5.1559
    -5.1292  -5.1204  -5.0158  -4.9841   3.2053   6.4750   6.8486   7.2244
     7.6515   7.9230   8.5415   9.0500   9.5709   9.8265  13.2131  13.6538
    13.9162  14.6969

          k =-0.0500 0.4500 0.2500 (  5107 PWs)   bands (ev):

   -46.1840 -22.5539 -22.4512 -22.4233  -6.6097  -6.0918  -5.9738  -5.1748
    -5.1376  -5.1317  -5.0101  -4.9554   3.0586   6.0496   6.9015   7.1218
     7.6895   7.9236   8.4289   9.0834   9.4558   9.9807  13.1497  14.0697
    14.1476  14.5925

          k = 0.4500 0.0500 0.2500 (  5107 PWs)   bands (ev):

   -46.1840 -22.4968 -22.4793 -22.4513  -6.7354  -6.0089  -5.9481  -5.1649
    -5.1318  -5.1236  -5.0084  -4.9873   3.0962   6.2002   6.9307   7.1070
     7.6908   8.0200   8.2512   9.1264   9.5042   9.9410  13.1958  13.9117
    14.1027  14.4970

          k = 0.3500 0.0500 0.3500 (  5102 PWs)   bands (ev):

   -46.1839 -22.4965 -22.4684 -22.4682  -6.7378  -5.9923  -5.9085  -5.1509
    -5.1340  -5.1193  -5.0345  -4.9405   3.0547   6.4135   6.5572   7.2010
     7.4028   7.9215   8.5450   8.7947   9.5173   9.9453  13.5633  13.6901
    14.1119  14.9458

          k =-0.0500 0.4500 0.3500 (  5107 PWs)   bands (ev):

   -46.1837 -22.5531 -22.4677 -22.4226  -6.5791  -6.0298  -5.9007  -5.1650
    -5.1438  -5.1295  -5.0441  -4.8681   2.9304   6.0104   6.5728   7.1594
     7.6054   7.9056   8.2620   8.7739   9.2916  10.0102  13.5583  14.0701
    14.3222  15.1301

          k = 0.4500 0.0500 0.3500 (  5107 PWs)   bands (ev):

   -46.1837 -22.4961 -22.4785 -22.4678  -6.7195  -5.9174  -5.8757  -5.1537
    -5.1325  -5.1263  -5.0454  -4.9106   2.9645   6.1670   6.5656   7.0929
     7.3719   8.0845   8.3223   8.7939   9.3267  10.0896  13.6119  13.9060
    14.2515  15.0399

          k = 0.4500 0.0500 0.4500 (  5120 PWs)   bands (ev):

   -46.1835 -22.4957 -22.4780 -22.4780  -6.7196  -5.8416  -5.8285  -5.1528
    -5.1306  -5.1263  -5.0727  -4.8646   2.8836   6.0496   6.4339   7.1370
     7.1601   8.2272   8.3803   8.5460   9.0736  10.2594  13.8876  13.9105
    14.3499  15.2927

          k =-0.1500 0.2500 0.1500 (  5098 PWs)   bands (ev):

   -46.1847 -22.5268 -22.4354 -22.4352  -6.8682  -6.1744  -6.0787  -5.1528
    -5.1374  -5.1081  -4.9944  -4.9764   3.5057   6.6767   6.7158   7.2579
     7.9341   8.1013   8.7410   9.3058   9.4182   9.6172  12.9260  13.4755
    13.5214  15.0831

          k =-0.1500 0.3500 0.1500 (  5109 PWs)   bands (ev):

   -46.1843 -22.5438 -22.4347 -22.4345  -6.7117  -6.1452  -6.0452  -5.1711
    -5.1337  -5.0956  -5.0163  -4.9732   3.2911   6.3700   6.6581   7.1627
     7.7884   8.0958   8.5619   9.3227   9.4665   9.8792  12.8650  13.8231
    13.8480  14.5975

          k =-0.1500 0.4500 0.1500 (  5109 PWs)   bands (ev):

   -46.1841 -22.5543 -22.4343 -22.4341  -6.6115  -6.1276  -6.0237  -5.1804
    -5.1313  -5.0808  -5.0326  -4.9781   3.1692   6.0819   6.6142   7.2153
     7.7248   8.0731   8.5056   9.3200   9.4955  10.0080  12.8083  14.0448
    14.0532  14.3786

          k = 0.2500 0.1500 0.2500 (  5107 PWs)   bands (ev):

   -46.1843 -22.5084 -22.4522 -22.4518  -6.7894  -6.1359  -6.0337  -5.1524
    -5.1377  -5.0947  -4.9833  -4.9700   3.3821   6.5958   6.7050   7.0672
     7.5747   7.8726   9.0175   9.1741   9.5019   9.5591  13.2513  13.4182
    13.5993  14.8704

          k =-0.1500 0.3500 0.2500 (  5091 PWs)   bands (ev):

   -46.1840 -22.5430 -22.4512 -22.4340  -6.6139  -6.1248  -6.0333  -5.1620
    -5.1357  -5.0754  -4.9836  -4.9469   3.2164   6.3140   6.5450   6.8665
     7.4814   7.9041   8.6356   9.2893   9.5148   9.7350  13.1495  13.7873
    13.9252  14.8442

          k = 0.3500 0.1500 0.2500 (  5091 PWs)   bands (ev):

   -46.1840 -22.5077 -22.4686 -22.4513  -6.6966  -6.0941  -5.9919  -5.1545
    -5.1302  -5.0750  -4.9831  -4.9646   3.2424   6.4365   6.6113   6.8172
     7.3829   7.8711   8.8436   9.2037   9.4664   9.7300  13.2235  13.6625
    13.8690  14.8254

          k =-0.1500 0.4500 0.2500 (  5097 PWs)   bands (ev):

   -46.1838 -22.5535 -22.4508 -22.4336  -6.5341  -6.0978  -6.0242  -5.1644
    -5.1309  -5.0573  -4.9902  -4.9406   3.1232   6.0564   6.4386   6.8596
     7.4602   7.9816   8.4563   9.3478   9.4636   9.7548  13.1241  14.0091
    14.1124  14.9260

          k = 0.4500 0.1500 0.2500 (  5097 PWs)   bands (ev):

   -46.1838 -22.5073 -22.4788 -22.4509  -6.6477  -6.0617  -5.9613  -5.1544
    -5.1235  -5.0582  -4.9824  -4.9698   3.1571   6.1979   6.5415   6.7868
     7.3439   7.9357   8.6588   9.2624   9.3764   9.8024  13.2006  13.8691
    14.0719  14.8664

          k = 0.3500 0.1500 0.3500 (  5103 PWs)   bands (ev):

   -46.1837 -22.5070 -22.4680 -22.4677  -6.6475  -6.0328  -5.9548  -5.1459
    -5.1225  -5.0538  -4.9831  -4.9250   3.1551   6.3911   6.4299   6.6030
     7.0030   7.8468   8.8759   9.0696   9.2641   9.9481  13.4690  13.7042
    14.0371  15.1060

          k =-0.1500 0.4500 0.3500 (  5098 PWs)   bands (ev):

   -46.1835 -22.5526 -22.4673 -22.4329  -6.4969  -6.0688  -5.9686  -5.1535
    -5.1136  -5.0433  -5.0087  -4.8524   3.0630   5.9963   6.4761   6.5122
     6.9955   7.9317   8.5517   9.0494   9.2032   9.9736  13.5101  13.9774
    14.2342  15.4057

          k = 0.4500 0.1500 0.3500 (  5098 PWs)   bands (ev):

   -46.1835 -22.5066 -22.4780 -22.4674  -6.6303  -5.9829  -5.9270  -5.1424
    -5.1103  -5.0402  -4.9937  -4.8961   3.0960   6.1597   6.4432   6.5028
     6.8920   7.8841   8.7090   9.0448   9.1362  10.0799  13.5627  13.8515
    14.1845  15.3558

          k = 0.4500 0.1500 0.4500 (  5091 PWs)   bands (ev):

   -46.1832 -22.5062 -22.4776 -22.4775  -6.6321  -5.9174  -5.9056  -5.1375
    -5.0888  -5.0274  -5.0145  -4.8498   3.0506   6.0397   6.3912   6.5155
     6.5979   7.9041   8.5012   9.0042   9.0152  10.2539  13.8225  13.8631
    14.2853  15.6641

          k =-0.2500 0.3500 0.2500 (  5084 PWs)   bands (ev):

   -46.1837 -22.5423 -22.4507 -22.4505  -6.5056  -6.1247  -6.0629  -5.1459
    -5.1264  -5.0264  -4.9406  -4.9120   3.2726   6.1600   6.2969   6.5883
     7.3070   7.3368   8.7617   9.4605   9.5669   9.6806  13.2242  13.7935
    13.9167  15.0931

          k =-0.2500 0.4500 0.2500 (  5099 PWs)   bands (ev):

   -46.1835 -22.5527 -22.4502 -22.4500  -6.4273  -6.1078  -6.0720  -5.1441
    -5.1168  -4.9837  -4.9484  -4.8983   3.2222   6.0260   6.0721   6.5144
     7.2816   7.3641   8.5232   9.4202   9.5971   9.7339  13.2751  13.9487
    14.1139  15.3784

          k = 0.3500 0.2500 0.3500 (  5076 PWs)   bands (ev):

   -46.1833 -22.5240 -22.4672 -22.4670  -6.4990  -6.0905  -6.0195  -5.1226
    -5.1134  -4.9753  -4.9003  -4.8920   3.3256   6.0734   6.0886   6.3992
     6.8278   7.2262   8.4325   9.5150   9.5476   9.9535  13.4427  13.8109
    14.0099  15.4122

          k =-0.2500 0.4500 0.3500 (  5083 PWs)   bands (ev):

   -46.1831 -22.5519 -22.4666 -22.4495  -6.3662  -6.1233  -6.0543  -5.1281
    -5.0932  -4.9515  -4.9114  -4.8213   3.3074   5.8433   6.0713   6.1971
     6.7261   7.2867   8.0359   9.4772   9.6748   9.9563  13.5726  13.9503
    14.1845  15.7766

          k = 0.4500 0.2500 0.3500 (  5083 PWs)   bands (ev):

   -46.1831 -22.5235 -22.4773 -22.4667  -6.4839  -6.0716  -5.9951  -5.1173
    -5.0988  -4.9305  -4.9003  -4.8633   3.3363   5.9401   6.0737   6.1545
     6.7144   7.2248   8.0722   9.5374   9.5599  10.0745  13.6256  13.8584
    14.1575  15.7596

          k = 0.4500 0.2500 0.4500 (  5092 PWs)   bands (ev):

   -46.1829 -22.5231 -22.4769 -22.4768  -6.4886  -6.0139  -6.0029  -5.1106
    -5.0826  -4.8961  -4.8857  -4.8212   3.3787   5.9132   5.9413   6.0344
     6.4734   7.2019   7.6447   9.5710   9.5740  10.2451  13.8484  13.9053
    14.2419  16.0864

          k =-0.3500 0.4500 0.3500 (  5078 PWs)   bands (ev):

   -46.1828 -22.5512 -22.4660 -22.4659  -6.2577  -6.1653  -6.1073  -5.1044
    -5.0806  -4.8760  -4.8166  -4.7764   3.6020   5.5559   5.8111   6.0087
     6.6031   6.7805   7.2740   9.8443   9.9505   9.9860  13.7810  14.0394
    14.1836  16.1727

          k = 0.4500 0.3500 0.4500 (  5081 PWs)   bands (ev):

   -46.1826 -22.5399 -22.4762 -22.4761  -6.3429  -6.0931  -6.0816  -5.0835
    -5.0801  -4.7972  -4.7710  -4.7708   3.8417   5.5132   5.5232   5.9505
     6.4714   6.6189   6.7093   9.9322   9.9401  10.2364  14.0093  14.0696
    14.2222  16.5339

     the Fermi energy is    10.3438 ev

!    total energy              =    -364.95554514 Ry
     Harris-Foulkes estimate   =    -364.95554514 Ry
     estimated scf accuracy    <          6.7E-09 Ry

     The total energy is the sum of the following terms:

     one-electron contribution =     -83.90624612 Ry
     hartree contribution      =      71.24264733 Ry
     xc contribution           =     -85.81031602 Ry
     ewald contribution        =    -266.48779593 Ry
     smearing contrib. (-TS)   =       0.00616560 Ry

     convergence has been achieved in   7 iterations

     Forces acting on atoms (cartesian axes, Ry/au):

     atom    1 type  1   force =     0.00000000    0.01638027    0.00000000
     atom    2 type  2   force =     0.00000000   -0.02510243    0.00000000
     atom    3 type  3   force =     0.00000000    0.00348279    0.00000000
     atom    4 type  3   force =     0.00000000    0.00175658    0.00000000
     atom    5 type  3   force =     0.00000000    0.00348279    0.00000000

     Total force =     0.025641     Total SCF correction =     0.000289


     Computing stress (Cartesian axis) and pressure

          total   stress  (Ry/bohr**3)                   (kbar)     P=    6.24
  -0.00002869   0.00000000   0.00000000         -4.22      0.00      0.00
   0.00000000   0.00018465   0.00000000          0.00     27.16      0.00
   0.00000000   0.00000000  -0.00002869          0.00      0.00     -4.22


     number of scf cycles    =   2
     number of bfgs steps    =   1

     energy   old            =    -364.9542723053 Ry
     energy   new            =    -364.9555451398 Ry

     CASE: energy  _new < energy  _old

     new trust radius        =       0.0414216809 bohr
     new conv_thr            =       0.0000000013 Ry


ATOMIC_POSITIONS (crystal)
Pb       0.000000000   0.000000000   0.000000000    0   0   0
Ti       0.500000000   0.537456299   0.500000000
O        0.500000000   0.501258997   0.000000000
O        0.500000000   0.002045975   0.500000000
O        0.000000000   0.501258997   0.500000000



     Writing output data file PbTiO3.save/
     NEW-OLD atomic charge density approx. for the potential

     Check: negative core charge=   -0.000005

     total cpu time spent up to now is      820.4 secs

     Self-consistent Calculation

     iteration #  1     ecut=    80.00 Ry     beta= 0.70
     Davidson diagonalization with overlap
     ethr =  1.00E-06,  avg # of iterations =  5.0

     total cpu time spent up to now is      885.1 secs

     total energy              =    -364.95628892 Ry
     Harris-Foulkes estimate   =    -364.95651276 Ry
     estimated scf accuracy    <       0.00034530 Ry

     iteration #  2     ecut=    80.00 Ry     beta= 0.70
     Davidson diagonalization with overlap
     ethr =  7.85E-07,  avg # of iterations =  4.1

     total cpu time spent up to now is      925.7 secs

     total energy              =    -364.95623585 Ry
     Harris-Foulkes estimate   =    -364.95653586 Ry
     estimated scf accuracy    <       0.00069156 Ry

     iteration #  3     ecut=    80.00 Ry     beta= 0.70
     Davidson diagonalization with overlap
     ethr =  7.85E-07,  avg # of iterations =  3.6

     total cpu time spent up to now is      963.4 secs

     total energy              =    -364.95638772 Ry
     Harris-Foulkes estimate   =    -364.95643279 Ry
     estimated scf accuracy    <       0.00013428 Ry

     iteration #  4     ecut=    80.00 Ry     beta= 0.70
     Davidson diagonalization with overlap
     ethr =  3.05E-07,  avg # of iterations =  3.0

     total cpu time spent up to now is      995.4 secs

     total energy              =    -364.95640805 Ry
     Harris-Foulkes estimate   =    -364.95640928 Ry
     estimated scf accuracy    <       0.00000248 Ry

     iteration #  5     ecut=    80.00 Ry     beta= 0.70
     Davidson diagonalization with overlap
     ethr =  5.64E-09,  avg # of iterations =  3.3

     total cpu time spent up to now is     1035.8 secs

     total energy              =    -364.95640892 Ry
     Harris-Foulkes estimate   =    -364.95640953 Ry
     estimated scf accuracy    <       0.00000145 Ry

     iteration #  6     ecut=    80.00 Ry     beta= 0.70
     Davidson diagonalization with overlap
     ethr =  3.30E-09,  avg # of iterations =  2.9

     total cpu time spent up to now is     1069.3 secs

     total energy              =    -364.95640924 Ry
     Harris-Foulkes estimate   =    -364.95640935 Ry
     estimated scf accuracy    <       0.00000038 Ry

     iteration #  7     ecut=    80.00 Ry     beta= 0.70
     Davidson diagonalization with overlap
     ethr =  8.68E-10,  avg # of iterations =  2.7

     total cpu time spent up to now is     1100.5 secs

     total energy              =    -364.95640930 Ry
     Harris-Foulkes estimate   =    -364.95640930 Ry
     estimated scf accuracy    <          4.3E-09 Ry

     iteration #  8     ecut=    80.00 Ry     beta= 0.70
     Davidson diagonalization with overlap
     ethr =  9.85E-12,  avg # of iterations =  4.0

     total cpu time spent up to now is     1147.2 secs

     End of self-consistent calculation

          k = 0.0500 0.0500 0.0500 (  5074 PWs)   bands (ev):

   -46.2268 -22.5186 -22.4670 -22.4670  -7.2661  -6.2765  -6.2049  -5.1115
    -5.1011  -5.1008  -4.9625  -4.9532   4.4066   6.7719   6.8008   6.9340
     8.8560   8.8796   9.1209   9.2828   9.4649   9.4892  12.3795  12.6686
    12.6700  14.5287

          k = 0.0500 0.0500 0.1500 (  5099 PWs)   bands (ev):

   -46.2266 -22.5182 -22.4774 -22.4666  -7.1836  -6.2437  -6.1750  -5.1192
    -5.1087  -5.1004  -4.9936  -4.9508   4.1149   6.8222   6.8734   7.1149
     8.6293   8.7653   9.0988   9.1696   9.3148   9.4765  12.6665  12.7070
    12.8449  14.6586

          k = 0.0500 0.0500 0.2500 (  5115 PWs)   bands (ev):

   -46.2262 -22.5176 -22.4942 -22.4660  -7.0458  -6.1865  -6.1268  -5.1326
    -5.1205  -5.0996  -5.0497  -4.9455   3.7515   6.8156   6.9957   7.1260
     8.4275   8.5068   9.0273   9.1063   9.2937   9.5442  12.6746  13.1651
    13.2268  14.6599

          k = 0.0500 0.0500 0.3500 (  5106 PWs)   bands (ev):

   -46.2259 -22.5170 -22.5109 -22.4654  -6.9016  -6.1215  -6.0808  -5.1540
    -5.1320  -5.1039  -5.0987  -4.9421   3.4674   6.4504   7.1738   7.2842
     8.1173   8.2103   8.9642   9.0999   9.4165   9.9043  12.6760  13.5882
    13.6394  14.2126

          k = 0.0500 0.0500 0.4500 (  5092 PWs)   bands (ev):

   -46.2257 -22.5213 -22.5165 -22.4650  -6.8085  -6.0720  -6.0579  -5.1828
    -5.1396  -5.1251  -5.0982  -4.9412   3.3204   6.1559   7.3571   7.5349
     7.8354   7.8946   8.9207   9.1306   9.4690  10.3419  12.6696  13.4941
    13.8389  13.9058

          k = 0.0500 0.1500 0.1500 (  5103 PWs)   bands (ev):

   -46.2263 -22.5288 -22.4770 -22.4662  -7.0947  -6.2196  -6.1482  -5.1214
    -5.1168  -5.1071  -4.9870  -4.9694   3.8986   6.7761   6.8904   7.2810
     8.3609   8.5884   8.9522   9.2053   9.2754   9.5275  12.7001  12.9507
    13.0804  14.8173

          k = 0.0500 0.1500 0.2500 (  5095 PWs)   bands (ev):

   -46.2260 -22.5281 -22.4938 -22.4656  -6.9619  -6.1698  -6.1062  -5.1388
    -5.1243  -5.1066  -5.0174  -4.9617   3.6070   6.7296   7.0013   7.2169
     8.1442   8.3852   8.8069   9.0983   9.2551   9.6924  12.9447  13.1687
    13.3972  14.8871

          k = 0.0500 0.1500 0.3500 (  5101 PWs)   bands (ev):

   -46.2257 -22.5275 -22.5105 -22.4650  -6.8258  -6.1195  -6.0590  -5.1588
    -5.1318  -5.1062  -5.0455  -4.9579   3.3630   6.4397   7.0937   7.2798
     7.8781   8.1887   8.7603   9.1224   9.2390   9.9477  12.9420  13.5856
    13.7586  14.3731

          k = 0.0500 0.1500 0.4500 (  5100 PWs)   bands (ev):

   -46.2255 -22.5270 -22.5208 -22.4646  -6.7401  -6.0877  -6.0266  -5.1748
    -5.1389  -5.1059  -5.0552  -4.9598   3.2318   6.1616   7.2059   7.4322
     7.7190   7.9105   8.8170   9.1758   9.2121  10.1518  12.9278  13.8307
    13.8901  14.0005

          k = 0.0500 0.2500 0.2500 (  5097 PWs)   bands (ev):

   -46.2257 -22.5451 -22.4931 -22.4650  -6.8269  -6.1455  -6.0617  -5.1437
    -5.1271  -5.1137  -4.9924  -4.9765   3.3885   6.6257   6.9984   7.1429
     7.9277   8.0771   8.5905   9.0078   9.4484   9.8164  13.1494  13.3699
    13.6771  14.9023

          k = 0.0500 0.2500 0.3500 (  5099 PWs)   bands (ev):

   -46.2253 -22.5444 -22.5097 -22.4643  -6.7145  -6.1109  -6.0043  -5.1530
    -5.1309  -5.1152  -5.0038  -4.9559   3.1974   6.4194   6.8695   7.2215
     7.7101   8.0358   8.4568   8.8820   9.5572   9.8387  13.3464  13.5795
    13.9535  14.6488

          k = 0.0500 0.2500 0.4500 (  5107 PWs)   bands (ev):

   -46.2251 -22.5439 -22.5200 -22.4639  -6.6509  -6.0843  -5.9628  -5.1607
    -5.1374  -5.1166  -4.9974  -4.9526   3.0892   6.1655   6.9083   7.1996
     7.6535   8.0130   8.3820   8.8934   9.5589   9.8351  13.3416  13.8206
    14.1500  14.4720

          k = 0.0500 0.3500 0.3500 (  5102 PWs)   bands (ev):

   -46.2250 -22.5612 -22.5089 -22.4637  -6.6286  -6.0637  -5.9458  -5.1511
    -5.1337  -5.1175  -5.0256  -4.8999   3.0377   6.2827   6.5719   7.2401
     7.6065   7.8994   8.3519   8.7595   9.5268   9.8837  13.5533  13.7560
    14.1586  14.9322

          k = 0.0500 0.3500 0.4500 (  5107 PWs)   bands (ev):

   -46.2248 -22.5607 -22.5191 -22.4633  -6.6002  -6.0247  -5.8927  -5.1531
    -5.1360  -5.1214  -5.0342  -4.8664   2.9485   6.1238   6.4683   7.2596
     7.4817   8.0596   8.2323   8.6669   9.3172   9.9840  13.7434  13.8071
    14.3216  15.0149

          k = 0.0500 0.4500 0.4500 (  5120 PWs)   bands (ev):

   -46.2246 -22.5711 -22.5186 -22.4629  -6.5887  -5.9593  -5.8459  -5.1545
    -5.1350  -5.1221  -5.0579  -4.8166   2.8628   5.9688   6.3293   7.2952
     7.3861   8.0573   8.2674   8.5527   9.0043  10.1590  13.7921  13.9933
    14.4435  15.3342

          k = 0.1500 0.1500 0.1500 (  5101 PWs)   bands (ev):

   -46.2261 -22.5284 -22.4767 -22.4765  -7.0168  -6.1966  -6.1248  -5.1293
    -5.1239  -5.1058  -4.9811  -4.9728   3.7508   6.7638   6.7933   7.3985
     8.1961   8.2935   8.9783   9.2564   9.3393   9.4101  12.9291  13.0706
    13.0889  15.3231

          k = 0.1500 0.1500 0.2500 (  5098 PWs)   bands (ev):

   -46.2258 -22.5277 -22.4934 -22.4760  -6.8904  -6.1586  -6.0842  -5.1456
    -5.1241  -5.1015  -4.9979  -4.9619   3.5271   6.6964   6.7948   7.2510
     7.9434   8.0888   8.9343   9.1899   9.3552   9.5866  13.0394  13.3000
    13.3913  15.0701

          k = 0.1500 0.1500 0.3500 (  5109 PWs)   bands (ev):

   -46.2255 -22.5271 -22.5100 -22.4753  -6.7645  -6.1197  -6.0380  -5.1592
    -5.1175  -5.0937  -5.0213  -4.9578   3.3247   6.4411   6.7992   7.1392
     7.7210   8.1493   8.6436   9.2666   9.3707   9.8064  12.9799  13.6448
    13.7456  14.5629

          k = 0.1500 0.1500 0.4500 (  5109 PWs)   bands (ev):

   -46.2253 -22.5266 -22.5203 -22.4749  -6.6881  -6.0952  -6.0052  -5.1649
    -5.1129  -5.0841  -5.0384  -4.9611   3.2111   6.1679   6.7945   7.1962
     7.6158   8.2608   8.4061   9.3243   9.3614   9.9190  12.9185  13.8681
    13.9817  14.3229

          k = 0.1500 0.2500 0.2500 (  5107 PWs)   bands (ev):

   -46.2255 -22.5447 -22.4926 -22.4753  -6.7531  -6.1384  -6.0651  -5.1476
    -5.1319  -5.0881  -4.9726  -4.9594   3.3803   6.5708   6.6833   7.0701
     7.6213   7.8821   8.9228   9.1675   9.4831   9.6584  13.1961  13.4104
    13.6263  14.8593

          k = 0.1500 0.2500 0.3500 (  5091 PWs)   bands (ev):

   -46.2251 -22.5440 -22.5093 -22.4746  -6.6435  -6.1243  -6.0139  -5.1508
    -5.1227  -5.0752  -4.9766  -4.9405   3.2398   6.4005   6.6302   6.8314
     7.3515   7.9190   8.8450   9.0972   9.5476   9.6795  13.2568  13.6058
    13.8840  14.8154

          k = 0.1500 0.2500 0.4500 (  5097 PWs)   bands (ev):

   -46.2249 -22.5435 -22.5195 -22.4742  -6.5824  -6.1161  -5.9722  -5.1502
    -5.1146  -5.0684  -4.9723  -4.9390   3.1547   6.1665   6.5795   6.7897
     7.2772   8.0145   8.6418   9.1862   9.4674   9.6945  13.2402  13.8150
    14.0832  14.8651

          k = 0.1500 0.3500 0.3500 (  5103 PWs)   bands (ev):

   -46.2248 -22.5608 -22.5085 -22.4740  -6.5478  -6.0943  -5.9886  -5.1463
    -5.1147  -5.0558  -4.9837  -4.8846   3.1411   6.2539   6.5070   6.6084
[...]

   -46.2094 -22.5576 -22.4827 -22.4825  -6.7709  -6.2719  -6.1662  -5.0053
    -5.0043  -4.9311  -4.8133  -4.7167   3.3594   6.2896   6.3491   6.8292
     7.4062   7.4456   8.9741   9.2667   9.4848   9.5182  13.1987  13.5985
    13.6981  15.0881

          k = 0.2500 0.2500 0.3500 (  5084 PWs)   bands (ev):

   -46.2091 -22.5569 -22.4990 -22.4819  -6.6528  -6.2537  -6.1830  -5.0027
    -4.9873  -4.8979  -4.7801  -4.7027   3.2718   6.1576   6.2053   6.5291
     7.1041   7.4681   8.9250   9.3176   9.4106   9.5968  13.3287  13.6536
    13.8872  15.2810

          k = 0.2500 0.2500 0.4500 (  5099 PWs)   bands (ev):

   -46.2088 -22.5564 -22.5091 -22.4815  -6.5875  -6.2275  -6.1987  -4.9999
    -4.9757  -4.8712  -4.7582  -4.7026   3.2128   6.0475   6.0877   6.3789
     7.0087   7.5382   8.7452   9.3329   9.3671   9.6490  13.4330  13.7268
    14.0657  15.5460

          k = 0.2500 0.3500 0.3500 (  5076 PWs)   bands (ev):

   -46.2087 -22.5736 -22.4982 -22.4812  -6.5805  -6.2617  -6.1210  -4.9925
    -4.9716  -4.8726  -4.7566  -4.6617   3.3169   5.9342   5.9830   6.3508
     6.7489   7.2969   8.6159   9.3972   9.4368   9.7713  13.4448  13.8534
    14.0250  15.5513

          k = 0.2500 0.3500 0.4500 (  5083 PWs)   bands (ev):

   -46.2085 -22.5731 -22.5083 -22.4808  -6.5433  -6.2194  -6.1405  -4.9873
    -4.9573  -4.8504  -4.7356  -4.6365   3.3104   5.8274   5.8991   6.1613
     6.6138   7.3384   8.2991   9.4105   9.4340   9.8851  13.6853  13.8101
    14.1618  15.9237

          k = 0.2500 0.4500 0.4500 (  5092 PWs)   bands (ev):

   -46.2083 -22.5834 -22.5078 -22.4804  -6.5379  -6.2215  -6.0716  -4.9833
    -4.9410  -4.8356  -4.7229  -4.5963   3.3615   5.7084   5.7709   6.0489
     6.4042   7.2930   7.9371   9.4228   9.4621  10.0414  13.7712  13.9983
    14.2480  16.1902

          k = 0.3500 0.3500 0.3500 (  5079 PWs)   bands (ev):

   -46.2084 -22.5729 -22.4976 -22.4975  -6.4592  -6.2812  -6.1659  -4.9651
    -4.9637  -4.8096  -4.6877  -4.6357   3.4149   5.7126   5.7515   6.1355
     6.7459   6.8094   8.0402   9.6683   9.7005   9.8209  13.6103  13.9726
    14.0047  15.9405

          k = 0.3500 0.3500 0.4500 (  5078 PWs)   bands (ev):

   -46.2082 -22.5724 -22.5076 -22.4971  -6.4072  -6.2616  -6.1987  -4.9604
    -4.9467  -4.7640  -4.6567  -4.6142   3.4623   5.5660   5.7109   5.9653
     6.5720   6.8120   7.5895   9.7326   9.8020   9.9158  13.8154  13.9363
    14.1328  16.3442

          k = 0.3500 0.4500 0.4500 (  5081 PWs)   bands (ev):

   -46.2080 -22.5827 -22.5072 -22.4967  -6.4063  -6.2801  -6.1297  -4.9520
    -4.9361  -4.7443  -4.6218  -4.5708   3.6586   5.4050   5.5092   5.8393
     6.3943   6.7282   7.1205   9.8370   9.8525  10.0417  13.9467  14.0741
    14.2054  16.6509

          k = 0.4500 0.4500 0.4500 (  5064 PWs)   bands (ev):

   -46.2078 -22.5822 -22.5067 -22.5067  -6.3265  -6.3101  -6.1638  -4.9349
    -4.9311  -4.6858  -4.5625  -4.5552   3.8657   5.3246   5.3717   5.7363
     6.3680   6.4586   6.4981  10.0239  10.0311  10.0487  14.1094  14.1800
    14.1808  17.0418

          k =-0.0500 0.1500 0.0500 (  5099 PWs)   bands (ev):

   -46.2108 -22.5429 -22.4576 -22.4575  -7.3048  -6.3521  -6.2339  -4.9942
    -4.9932  -4.9711  -4.8900  -4.7656   4.1819   6.6753   6.6941   7.2787
     8.5165   8.5264   8.9743   8.9845   9.3005   9.3347  12.3732  13.1649
    13.1955  14.5898

          k =-0.0500 0.2500 0.0500 (  5115 PWs)   bands (ev):

   -46.2105 -22.5600 -22.4569 -22.4569  -7.1697  -6.3118  -6.1821  -5.0063
    -5.0014  -4.9702  -4.8770  -4.8103   3.8193   6.7102   6.7337   7.0795
     8.2979   8.3088   8.9383   9.0472   9.3393   9.5152  12.3751  13.5403
    13.5804  14.5953

          k =-0.0500 0.3500 0.0500 (  5106 PWs)   bands (ev):

   -46.2101 -22.5770 -22.4563 -22.4563  -7.0306  -6.2689  -6.1289  -5.0184
    -5.0093  -4.9692  -4.8642  -4.8576   3.5237   6.4592   6.7900   6.9343
     8.1182   8.1273   8.8786   9.1868   9.3810   9.9595  12.3762  13.9032
    13.9519  14.1700

          k =-0.0500 0.4500 0.0500 (  5092 PWs)   bands (ev):

   -46.2099 -22.5875 -22.4559 -22.4559  -6.9425  -6.2409  -6.0952  -5.0258
    -5.0140  -4.9686  -4.8884  -4.8564   3.3649   6.1652   6.8233   6.9630
     8.0181   8.0204   8.8395   9.2482   9.4080  10.4102  12.3750  13.4665
    14.1209  14.1821

          k = 0.1500 0.0500 0.1500 (  5103 PWs)   bands (ev):

   -46.2106 -22.5315 -22.4680 -22.4677  -7.2200  -6.3330  -6.2400  -5.0133
    -4.9951  -4.9781  -4.8840  -4.7380   3.9371   6.6543   6.8910   7.2848
     8.3284   8.3503   8.8233   9.0322   9.1712   9.5606  12.8586  12.9472
    13.0135  15.1426

          k =-0.0500 0.2500 0.1500 (  5095 PWs)   bands (ev):

   -46.2103 -22.5595 -22.4672 -22.4565  -7.0939  -6.3039  -6.1650  -5.0098
    -4.9985  -4.9773  -4.8794  -4.7854   3.6755   6.5718   6.7930   7.2170
     8.0173   8.2591   8.6893   9.0885   9.1593   9.7166  12.6653  13.5160
    13.5942  14.9160

          k = 0.2500 0.0500 0.1500 (  5095 PWs)   bands (ev):

   -46.2103 -22.5309 -22.4844 -22.4672  -7.0821  -6.2986  -6.2267  -5.0321
    -4.9943  -4.9751  -4.8721  -4.7436   3.6298   6.6264   6.9284   7.2111
     8.0058   8.2566   8.7554   9.0184   9.1796   9.7158  12.9590  13.1850
    13.2958  15.1513

          k =-0.0500 0.3500 0.1500 (  5101 PWs)   bands (ev):

   -46.2099 -22.5765 -22.4665 -22.4559  -6.9642  -6.2696  -6.1077  -5.0202
    -4.9969  -4.9768  -4.8724  -4.8149   3.4252   6.3351   6.7894   7.0596
     7.8686   8.1137   8.6936   9.0920   9.1931  10.0538  12.6574  13.8681
    13.9605  14.3956

          k = 0.3500 0.0500 0.1500 (  5101 PWs)   bands (ev):

   -46.2099 -22.5302 -22.5009 -22.4666  -6.9366  -6.2639  -6.2174  -5.0454
    -4.9892  -4.9691  -4.8612  -4.7611   3.3755   6.3637   6.9577   7.2933
     7.7219   8.2337   8.5052   9.0685   9.2350   9.9857  12.9658  13.5466
    13.6457  14.7296

          k =-0.0500 0.4500 0.1500 (  5100 PWs)   bands (ev):

   -46.2097 -22.5869 -22.4661 -22.4555  -6.8845  -6.2467  -6.0697  -5.0269
    -4.9955  -4.9764  -4.8689  -4.8332   3.2858   6.0823   6.7685   7.0671
     7.7896   8.0258   8.7370   9.0767   9.2179  10.3139  12.6468  13.8886
    14.0911  14.1862

          k = 0.4500 0.0500 0.1500 (  5100 PWs)   bands (ev):

   -46.2097 -22.5297 -22.5111 -22.4662  -6.8417  -6.2374  -6.2197  -5.0507
    -4.9857  -4.9631  -4.8474  -4.7848   3.2398   6.1099   7.0650   7.3301
     7.6902   7.9510   8.4973   9.0719   9.2679  10.2319  12.9510  13.7815
    13.8929  14.2484

          k = 0.2500 0.0500 0.2500 (  5097 PWs)   bands (ev):

   -46.2099 -22.5302 -22.4839 -22.4835  -6.9558  -6.2623  -6.2274  -5.0357
    -4.9963  -4.9582  -4.8479  -4.7484   3.3834   6.6051   6.8230   7.1987
     7.8348   7.9081   8.7368   8.9166   9.3583   9.8052  13.1526  13.2483
    13.5173  15.2608

          k =-0.0500 0.3500 0.2500 (  5099 PWs)   bands (ev):

   -46.2096 -22.5757 -22.4829 -22.4553  -6.8666  -6.2558  -6.0709  -5.0176
    -4.9921  -4.9798  -4.8815  -4.7534   3.2730   6.2015   6.8588   7.0003
     7.7132   7.8540   8.3692   8.8778   9.3879  10.0001  13.0702  13.9294
    14.0100  14.7492

          k = 0.3500 0.0500 0.2500 (  5099 PWs)   bands (ev):

   -46.2096 -22.5295 -22.5002 -22.4830  -6.8293  -6.2314  -6.2191  -5.0376
    -4.9888  -4.9348  -4.8290  -4.7647   3.1630   6.3733   6.7497   7.1987
     7.6547   7.9369   8.4477   8.9785   9.4635   9.8713  13.1864  13.5667
    13.7666  15.0029

          k =-0.0500 0.4500 0.2500 (  5107 PWs)   bands (ev):

   -46.2094 -22.5861 -22.4825 -22.4549  -6.8079  -6.2320  -6.0244  -5.0236
    -4.9885  -4.9735  -4.8861  -4.7515   3.1619   5.9683   6.7882   7.0043
     7.6431   7.8341   8.3149   8.9042   9.3919  10.0746  13.0594  14.1396
    14.2049  14.5495

          k = 0.4500 0.0500 0.2500 (  5107 PWs)   bands (ev):

   -46.2094 -22.5291 -22.5103 -22.4826  -6.7523  -6.2241  -6.1989  -5.0375
    -4.9821  -4.9105  -4.8168  -4.7881   3.0390   6.1177   6.8331   7.0850
     7.7077   7.9837   8.2053   9.0488   9.4548   9.9234  13.1791  13.8091
    13.9467  14.7975

          k = 0.3500 0.0500 0.3500 (  5102 PWs)   bands (ev):

   -46.2093 -22.5289 -22.4995 -22.4993  -6.7357  -6.2105  -6.1902  -5.0312
    -4.9762  -4.9000  -4.7966  -4.7791   2.9616   6.2930   6.4919   7.2132
     7.5332   7.8627   8.4051   8.7926   9.6405   9.7466  13.4975  13.6135
    13.9094  15.1810

          k =-0.0500 0.4500 0.3500 (  5107 PWs)   bands (ev):

   -46.2091 -22.5852 -22.4988 -22.4542  -6.7606  -6.1741  -5.9803  -5.0216
    -4.9974  -4.9637  -4.8926  -4.6772   3.0458   5.8721   6.5714   7.0362
     7.4130   7.7340   8.2224   8.6492   9.4378   9.9694  13.4368  14.1720
    14.3253  15.1275

          k = 0.4500 0.0500 0.3500 (  5107 PWs)   bands (ev):

   -46.2091 -22.5284 -22.5095 -22.4989  -6.6888  -6.1907  -6.1658  -5.0277
    -4.9630  -4.8677  -4.8023  -4.7777   2.8429   6.0702   6.5040   7.1548
     7.4818   8.0196   8.2182   8.7651   9.4482   9.8896  13.5469  13.8229
    14.0158  15.1903

          k = 0.4500 0.0500 0.4500 (  5120 PWs)   bands (ev):

   -46.2088 -22.5279 -22.5090 -22.5090  -6.6653  -6.1516  -6.1453  -5.0229
    -4.9401  -4.8404  -4.8212  -4.7535   2.7245   5.9467   6.4079   7.2469
     7.2931   8.1358   8.2343   8.5641   9.1934  10.0537  13.8150  13.8399
    14.0648  15.1709

          k =-0.1500 0.2500 0.1500 (  5098 PWs)   bands (ev):

   -46.2101 -22.5591 -22.4668 -22.4667  -7.0175  -6.2963  -6.1592  -5.0155
    -4.9982  -4.9735  -4.8669  -4.7654   3.5825   6.5649   6.5907   7.2530
     7.9220   7.9673   8.6702   9.1340   9.2831   9.6770  12.8460  13.4809
    13.6085  15.1812

          k =-0.1500 0.3500 0.1500 (  5109 PWs)   bands (ev):

   -46.2097 -22.5760 -22.4661 -22.4660  -6.8947  -6.2731  -6.1003  -5.0251
    -4.9876  -4.9652  -4.8617  -4.7859   3.3782   6.3381   6.4920   7.0642
     7.8510   7.8873   8.5426   9.1645   9.3044   9.9437  12.8014  13.8278
    13.9515  14.6054

          k =-0.1500 0.4500 0.1500 (  5109 PWs)   bands (ev):

   -46.2095 -22.5864 -22.4657 -22.4656  -6.8208  -6.2585  -6.0587  -5.0298
    -4.9832  -4.9540  -4.8620  -4.8002   3.2592   6.0800   6.4415   7.0496
     7.8011   7.8955   8.4681   9.1760   9.3127  10.0987  12.7638  14.0503
    14.1615  14.3146

          k = 0.2500 0.1500 0.2500 (  5107 PWs)   bands (ev):

   -46.2097 -22.5407 -22.4834 -22.4831  -6.8822  -6.2659  -6.2085  -5.0245
    -5.0005  -4.9489  -4.8338  -4.7352   3.3812   6.4934   6.6343   6.9432
     7.6362   7.8602   8.8775   9.0487   9.3921   9.6534  13.2266  13.3649
    13.5445  15.1660

          k =-0.1500 0.3500 0.2500 (  5091 PWs)   bands (ev):

   -46.2094 -22.5752 -22.4825 -22.4654  -6.7913  -6.2672  -6.0846  -5.0191
    -4.9922  -4.9424  -4.8484  -4.7349   3.2939   6.1906   6.4549   6.8356
     7.3882   7.7872   8.6435   9.1010   9.4383   9.7869  13.0844  13.8525
    13.9633  14.9199

          k = 0.3500 0.1500 0.2500 (  5091 PWs)   bands (ev):

   -46.2094 -22.5400 -22.4997 -22.4826  -6.7561  -6.2415  -6.2116  -5.0240
    -4.9898  -4.9200  -4.8092  -4.7417   3.2084   6.3327   6.5439   6.7397
     7.4015   7.9082   8.7535   9.0861   9.4851   9.6540  13.2461  13.5761
    13.7892  15.0920

          k =-0.1500 0.4500 0.2500 (  5097 PWs)   bands (ev):

   -46.2092 -22.5856 -22.4821 -22.4650  -6.7346  -6.2565  -6.0362  -5.0212
    -4.9862  -4.9222  -4.8550  -4.7325   3.2079   5.9799   6.3502   6.7731
     7.3711   7.7761   8.5405   9.1392   9.4392   9.7994  13.0721  14.0747
    14.1453  14.8951

          k = 0.4500 0.1500 0.2500 (  5097 PWs)   bands (ev):

   -46.2092 -22.5395 -22.5099 -22.4822  -6.6799  -6.2353  -6.2012  -5.0224
    -4.9815  -4.8925  -4.7882  -4.7632   3.1062   6.1102   6.4994   6.7030
     7.3242   8.0049   8.5841   9.1412   9.4561   9.6649  13.2374  13.7585
    13.9886  15.1158

          k = 0.3500 0.1500 0.3500 (  5103 PWs)   bands (ev):

   -46.2091 -22.5393 -22.4990 -22.4989  -6.6543  -6.2200  -6.2131  -5.0156
    -4.9735  -4.8748  -4.7754  -4.7442   3.0606   6.2758   6.3695   6.5741
     7.0866   7.8793   8.8512   8.9715   9.3483   9.7513  13.4573  13.6431
    13.9104  15.3567

          k =-0.1500 0.4500 0.3500 (  5098 PWs)   bands (ev):

   -46.2088 -22.5847 -22.4984 -22.4644  -6.6815  -6.2114  -6.0145  -5.0143
    -4.9755  -4.9144  -4.8417  -4.6623   3.1501   5.8558   6.3944   6.5174
     6.8032   7.8263   8.6453   8.9537   9.1897   9.9000  13.4394  14.0656
    14.2306  15.4278

          k = 0.4500 0.1500 0.3500 (  5098 PWs)   bands (ev):

   -46.2088 -22.5388 -22.5091 -22.4985  -6.6031  -6.2179  -6.1892  -5.0114
    -4.9590  -4.8326  -4.7665  -4.7502   2.9666   6.0611   6.3993   6.5121
     6.9477   7.9363   8.7251   9.0116   9.1297   9.8784  13.5404  13.7800
    14.0378  15.5976

          k = 0.4500 0.1500 0.4500 (  5091 PWs)   bands (ev):

   -46.2086 -22.5383 -22.5086 -22.5086  -6.5751  -6.1862  -6.1810  -5.0062
    -4.9374  -4.7899  -4.7676  -4.7379   2.8741   5.9359   6.3715   6.5740
     6.6704   7.9546   8.6471   8.9169   8.9442  10.0487  13.7756  13.8121
    14.0956  15.7678

          k =-0.2500 0.3500 0.2500 (  5084 PWs)   bands (ev):

   -46.2091 -22.5744 -22.4820 -22.4818  -6.6753  -6.2781  -6.1027  -5.0052
    -4.9871  -4.9051  -4.7980  -4.7008   3.3143   6.0806   6.1718   6.5492
     7.1641   7.3597   8.8519   9.3441   9.4753   9.5961  13.2010  13.8852
    13.8930  15.1983

          k =-0.2500 0.4500 0.2500 (  5099 PWs)   bands (ev):

   -46.2088 -22.5848 -22.4815 -22.4814  -6.6268  -6.2821  -6.0500  -5.0044
    -4.9773  -4.8810  -4.7940  -4.6921   3.2757   5.9550   6.0061   6.4046
     7.1268   7.3299   8.7019   9.3723   9.4319   9.6491  13.2423  14.0508
    14.0886  15.3765

          k = 0.3500 0.2500 0.3500 (  5076 PWs)   bands (ev):

   -46.2087 -22.5561 -22.4983 -22.4982  -6.5363  -6.2482  -6.2164  -4.9898
    -4.9693  -4.8410  -4.7338  -4.6892   3.2316   6.0247   6.0674   6.2654
     6.8696   7.2649   8.6137   9.4295   9.4500   9.7638  13.4638  13.7640
    13.9517  15.6096

          k =-0.2500 0.4500 0.3500 (  5083 PWs)   bands (ev):

   -46.2085 -22.5840 -22.4978 -22.4808  -6.5541  -6.2657  -6.0622  -4.9897
    -4.9582  -4.8529  -4.7457  -4.6359   3.3324   5.7661   5.9221   6.1501
     6.6331   7.2597   8.3308   9.4026   9.4624   9.8794  13.5369  14.0171
    14.1576  15.8326

          k = 0.4500 0.2500 0.3500 (  5083 PWs)   bands (ev):

   -46.2085 -22.5556 -22.5083 -22.4978  -6.4760  -6.2453  -6.2225  -4.9848
    -4.9536  -4.7943  -4.7128  -4.6848   3.1927   5.9316   6.0434   6.0782
     6.7125   7.2818   8.2809   9.4586   9.4711   9.8777  13.6268  13.8020
    14.0792  15.9721

          k = 0.4500 0.2500 0.4500 (  5092 PWs)   bands (ev):

   -46.2083 -22.5551 -22.5079 -22.5079  -6.4288  -6.2350  -6.2340  -4.9790
    -4.9346  -4.7370  -4.6853  -4.6838   3.1602   5.8930   5.9954   5.9970
     6.4677   7.2433   7.8754   9.4973   9.5011  10.0409  13.8158  13.8653
    14.1291  16.3063

          k =-0.3500 0.4500 0.3500 (  5078 PWs)   bands (ev):

   -46.2082 -22.5832 -22.4971 -22.4971  -6.4392  -6.3007  -6.1043  -4.9626
    -4.9477  -4.7885  -4.6589  -4.6033   3.5309   5.5707   5.6012   5.9467
     6.5487   6.7938   7.6475   9.7387   9.7640   9.9174  13.7503  14.0621
    14.1445  16.2669

          k = 0.4500 0.3500 0.4500 (  5081 PWs)   bands (ev):

   -46.2080 -22.5719 -22.5072 -22.5072  -6.3176  -6.2822  -6.2409  -4.9518
    -4.9323  -4.7060  -4.6098  -4.6034   3.5379   5.5477   5.5888   5.8439
     6.4584   6.6551   7.0583   9.8672   9.8762  10.0334  13.9727  14.0278
    14.1524  16.7248

     the Fermi energy is    10.3067 ev

!    total energy              =    -364.96210940 Ry
     Harris-Foulkes estimate   =    -364.96210940 Ry
     estimated scf accuracy    <          1.0E-10 Ry

     The total energy is the sum of the following terms:

     one-electron contribution =     -85.97547343 Ry
     hartree contribution      =      72.28727495 Ry
     xc contribution           =     -85.85619474 Ry
     ewald contribution        =    -265.42390696 Ry
     smearing contrib. (-TS)   =       0.00619077 Ry

     convergence has been achieved in   8 iterations

     Forces acting on atoms (cartesian axes, Ry/au):

     atom    1 type  1   force =     0.00000000   -0.00016866    0.00000000
     atom    2 type  2   force =     0.00000000    0.00086049    0.00000000
     atom    3 type  3   force =     0.00000000   -0.00027464    0.00000000
     atom    4 type  3   force =     0.00000000   -0.00014256    0.00000000
     atom    5 type  3   force =     0.00000000   -0.00027464    0.00000000

     Total force =     0.000955     Total SCF correction =     0.000011


     Computing stress (Cartesian axis) and pressure

          total   stress  (Ry/bohr**3)                   (kbar)     P=   23.13
   0.00004901   0.00000000   0.00000000          7.21      0.00      0.00
   0.00000000   0.00037360   0.00000000          0.00     54.96      0.00
   0.00000000   0.00000000   0.00004901          0.00      0.00      7.21


     bfgs converged in  21 scf cycles and  20 bfgs steps
     (criteria: energy <  1.0E-04 Ry, force <  1.0E-03 Ry/Bohr)

     End of BFGS Geometry Optimization

     Final energy   =    -364.9621094027 Ry
Begin final coordinates

ATOMIC_POSITIONS (crystal)
Pb       0.000000000   0.000000000   0.000000000    0   0   0
Ti       0.500000000   0.466028454   0.500000000
O        0.500000000   0.408917549   0.000000000
O        0.500000000  -0.081811938   0.500000000
O        0.000000000   0.408917549   0.500000000
End final coordinates



     Writing output data file PbTiO3.save/

     init_run     :     11.85s CPU     15.64s WALL (       1 calls)
     electrons    :   5635.07s CPU   7719.96s WALL (      21 calls)
     update_pot   :      7.80s CPU      8.21s WALL (      20 calls)
     forces       :    113.28s CPU    127.05s WALL (      21 calls)
     stress       :    289.33s CPU    313.38s WALL (      21 calls)

     Called by init_run:
     wfcinit      :      8.85s CPU     12.32s WALL (       1 calls)
     potinit      :      0.28s CPU      0.30s WALL (       1 calls)
     hinit0       :      1.98s CPU      2.00s WALL (       1 calls)

     Called by electrons:
     c_bands      :   4856.44s CPU   6525.62s WALL (     195 calls)
     sum_band     :    616.64s CPU    976.62s WALL (     195 calls)
     v_of_rho     :     43.55s CPU     47.11s WALL (     213 calls)
     newd         :    129.53s CPU    186.27s WALL (     213 calls)
     mix_rho      :      3.86s CPU      4.54s WALL (     195 calls)

     Called by c_bands:
     init_us_2    :     80.06s CPU    101.52s WALL (   32475 calls)
     cegterg      :   4621.47s CPU   6273.41s WALL (   14625 calls)

     Called by sum_band:
     sum_band:bec :      0.88s CPU      1.23s WALL (   14625 calls)
     addusdens    :    164.37s CPU    216.48s WALL (     195 calls)

     Called by *egterg:
     h_psi        :   2478.84s CPU   3933.70s WALL (   64897 calls)
     s_psi        :    489.73s CPU    536.13s WALL (   64897 calls)
     g_psi        :     44.78s CPU     57.10s WALL (   50197 calls)
     cdiaghg      :     85.56s CPU    112.88s WALL (   63097 calls)

     Called by h_psi:
     h_psi:pot    :   2468.68s CPU   3917.37s WALL (   64897 calls)
     h_psi:calbec :    485.52s CPU    539.10s WALL (   64897 calls)
     vloc_psi     :   1482.20s CPU   2839.78s WALL (   64897 calls)
     add_vuspsi   :    496.77s CPU    533.51s WALL (   64897 calls)

     General routines
     calbec       :    746.86s CPU    822.76s WALL (   87397 calls)
     fft          :     19.88s CPU     22.00s WALL (    3275 calls)
     ffts         :      0.50s CPU      0.75s WALL (     408 calls)
     fftw         :   1534.34s CPU   2959.46s WALL ( 2535282 calls)
     interpolate  :      1.76s CPU      2.19s WALL (     213 calls)

     Parallel routines

     PWSCF        :      1h41m CPU      2h16m WALL


   This run was terminated on:  19: 2:21  14May2020            

=------------------------------------------------------------------------------=
   JOB DONE.
=------------------------------------------------------------------------------=
