
     Program PWSCF v.6.4.1 starts on 13May2020 at 12:52:26 

     This program is part of the open-source Quantum ESPRESSO suite
     for quantum simulation of materials; please cite
         "P. Giannozzi et al., J. Phys.:Condens. Matter 21 395502 (2009);
         "P. Giannozzi et al., J. Phys.:Condens. Matter 29 465901 (2017);
          URL http://www.quantum-espresso.org", 
     in publications or presentations arising from this work. More details at
     http://www.quantum-espresso.org/quote

     Parallel version (MPI & OpenMP), running on       1 processor cores
     Number of MPI processes:                 1
     Threads/MPI process:                     1

     MPI processes distributed on     1 nodes
     Reading input from PTO_7.49_10_0.52.pw.in
Warning: card  &CELL ignored
Warning: card   CELL_DYNAMICS = 'BFGS', ignored
Warning: card  / ignored

     Current dimensions of program PWSCF are:
     Max number of different atomic species (ntypx) = 10
     Max number of k-points (npk) =  40000
     Max angular momentum in pseudopotentials (lmaxx) =  3
     Message from routine read_upf::
     Pseudo file Pb.pbe-dn-rrkjus_psl.0.2.2.UPF has been fixed on the fly.
To avoid this message in the future, permanently fix 
 your pseudo files following these instructions: 
https://gitlab.com/QEF/q-e/blob/master/upftools/how_to_fix_upf.md
     Message from routine read_upf::
     Pseudo file O.pbe-n-rrkjus_psl.0.1.UPF has been fixed on the fly.
To avoid this message in the future, permanently fix 
 your pseudo files following these instructions: 
https://gitlab.com/QEF/q-e/blob/master/upftools/how_to_fix_upf.md
               file Pb.pbe-dn-rrkjus_psl.0.2.2.UPF: wavefunction(s)  6S renormalized

     Subspace diagonalization in iterative solution of the eigenvalue problem:
     a serial algorithm will be used

 
     G-vector sticks info
     --------------------
     sticks:   dense  smooth     PW     G-vecs:    dense   smooth      PW
     Sum        3569    1433    421               160467    40651    6235
 


     bravais-lattice index     =            1
     lattice parameter (alat)  =       7.4900  a.u.
     unit-cell volume          =     420.1897 (a.u.)^3
     number of atoms/cell      =            5
     number of atomic types    =            3
     number of electrons       =        44.00
     number of Kohn-Sham states=           26
     kinetic-energy cutoff     =      80.0000  Ry
     charge density cutoff     =     800.0000  Ry
     convergence threshold     =      1.0E-08
     mixing beta               =       0.7000
     number of iterations used =            8  plain     mixing
     Exchange-correlation      = PBE ( 1  4  3  4 0 0)
     nstep                     =           50


     celldm(1)=   7.490000  celldm(2)=   0.000000  celldm(3)=   0.000000
     celldm(4)=   0.000000  celldm(5)=   0.000000  celldm(6)=   0.000000

     crystal axes: (cart. coord. in units of alat)
               a(1) = (   1.000000   0.000000   0.000000 )  
               a(2) = (   0.000000   1.000000   0.000000 )  
               a(3) = (   0.000000   0.000000   1.000000 )  

     reciprocal axes: (cart. coord. in units 2 pi/alat)
               b(1) = (  1.000000  0.000000  0.000000 )  
               b(2) = (  0.000000  1.000000  0.000000 )  
               b(3) = (  0.000000  0.000000  1.000000 )  


     PseudoPot. # 1 for Pb read from file:
     ./Pb.pbe-dn-rrkjus_psl.0.2.2.UPF
     MD5 check sum: 7afc420059c37d6888fc09c0f121e83f
     Pseudo is Ultrasoft + core correction, Zval = 14.0
     Generated using "atomic" code by A. Dal Corso v.5.0.2 svn rev. 9415
     Using radial grid of 1281 points,  6 beta functions with: 
                l(1) =   0
                l(2) =   0
                l(3) =   1
                l(4) =   1
                l(5) =   2
                l(6) =   2
     Q(r) pseudized with 0 coefficients 


     PseudoPot. # 2 for Ti read from file:
     ./Ti.pbe-sp-van_ak.UPF
     MD5 check sum: 8e4df49b7f0d34bbd5052bf3f5ea0213
     Pseudo is Ultrasoft, Zval = 12.0
     Generated by new atomic code, or converted to UPF format
     Using radial grid of  851 points,  6 beta functions with: 
                l(1) =   0
                l(2) =   0
                l(3) =   1
                l(4) =   1
                l(5) =   2
                l(6) =   2
     Q(r) pseudized with  8 coefficients,  rinner =    1.000   1.000   1.000
                                                       1.000   1.000

     PseudoPot. # 3 for O  read from file:
     ./O.pbe-n-rrkjus_psl.0.1.UPF
     MD5 check sum: e057bbcf3229fb5d8c36c0c92f9568b4
     Pseudo is Ultrasoft + core correction, Zval =  6.0
     Generated using "atomic" code by A. Dal Corso v.5.0.2 svn rev. 9415
     Using radial grid of 1095 points,  4 beta functions with: 
                l(1) =   0
                l(2) =   0
                l(3) =   1
                l(4) =   1
     Q(r) pseudized with 0 coefficients 


     atomic species   valence    mass     pseudopotential
        Pb            14.00   207.20000     Pb( 1.00)
        Ti            12.00    47.87000     Ti( 1.00)
        O              6.00    16.00000     O ( 1.00)

      8 Sym. Ops. (no inversion) found



   Cartesian axes

     site n.     atom                  positions (alat units)
         1           Pb  tau(   1) = (   0.0000000   0.0000000   0.0000000  )
         2           Ti  tau(   2) = (   0.5000000   0.5200000   0.5000000  )
         3           O   tau(   3) = (   0.5000000   0.5000000   0.0000000  )
         4           O   tau(   4) = (   0.5000000   0.0000000   0.5000000  )
         5           O   tau(   5) = (   0.0000000   0.5000000   0.5000000  )

     number of k points=    75  Marzari-Vanderbilt smearing, width (Ry)=  0.0250
                       cart. coord. in units 2pi/alat
        k(    1) = (   0.0500000   0.0500000   0.0500000), wk =   0.0160000
        k(    2) = (   0.0500000   0.0500000   0.1500000), wk =   0.0320000
        k(    3) = (   0.0500000   0.0500000   0.2500000), wk =   0.0320000
        k(    4) = (   0.0500000   0.0500000   0.3500000), wk =   0.0320000
        k(    5) = (   0.0500000   0.0500000   0.4500000), wk =   0.0320000
        k(    6) = (   0.0500000   0.1500000   0.1500000), wk =   0.0320000
        k(    7) = (   0.0500000   0.1500000   0.2500000), wk =   0.0320000
        k(    8) = (   0.0500000   0.1500000   0.3500000), wk =   0.0320000
        k(    9) = (   0.0500000   0.1500000   0.4500000), wk =   0.0320000
        k(   10) = (   0.0500000   0.2500000   0.2500000), wk =   0.0320000
        k(   11) = (   0.0500000   0.2500000   0.3500000), wk =   0.0320000
        k(   12) = (   0.0500000   0.2500000   0.4500000), wk =   0.0320000
        k(   13) = (   0.0500000   0.3500000   0.3500000), wk =   0.0320000
        k(   14) = (   0.0500000   0.3500000   0.4500000), wk =   0.0320000
        k(   15) = (   0.0500000   0.4500000   0.4500000), wk =   0.0320000
        k(   16) = (   0.1500000   0.1500000   0.1500000), wk =   0.0160000
        k(   17) = (   0.1500000   0.1500000   0.2500000), wk =   0.0320000
        k(   18) = (   0.1500000   0.1500000   0.3500000), wk =   0.0320000
        k(   19) = (   0.1500000   0.1500000   0.4500000), wk =   0.0320000
        k(   20) = (   0.1500000   0.2500000   0.2500000), wk =   0.0320000
        k(   21) = (   0.1500000   0.2500000   0.3500000), wk =   0.0320000
        k(   22) = (   0.1500000   0.2500000   0.4500000), wk =   0.0320000
        k(   23) = (   0.1500000   0.3500000   0.3500000), wk =   0.0320000
        k(   24) = (   0.1500000   0.3500000   0.4500000), wk =   0.0320000
        k(   25) = (   0.1500000   0.4500000   0.4500000), wk =   0.0320000
        k(   26) = (   0.2500000   0.2500000   0.2500000), wk =   0.0160000
        k(   27) = (   0.2500000   0.2500000   0.3500000), wk =   0.0320000
        k(   28) = (   0.2500000   0.2500000   0.4500000), wk =   0.0320000
        k(   29) = (   0.2500000   0.3500000   0.3500000), wk =   0.0320000
        k(   30) = (   0.2500000   0.3500000   0.4500000), wk =   0.0320000
        k(   31) = (   0.2500000   0.4500000   0.4500000), wk =   0.0320000
        k(   32) = (   0.3500000   0.3500000   0.3500000), wk =   0.0160000
        k(   33) = (   0.3500000   0.3500000   0.4500000), wk =   0.0320000
        k(   34) = (   0.3500000   0.4500000   0.4500000), wk =   0.0320000
        k(   35) = (   0.4500000   0.4500000   0.4500000), wk =   0.0160000
        k(   36) = (  -0.0500000   0.1500000   0.0500000), wk =   0.0160000
        k(   37) = (  -0.0500000   0.2500000   0.0500000), wk =   0.0160000
        k(   38) = (  -0.0500000   0.3500000   0.0500000), wk =   0.0160000
        k(   39) = (  -0.0500000   0.4500000   0.0500000), wk =   0.0160000
        k(   40) = (   0.1500000   0.0500000   0.1500000), wk =   0.0160000
        k(   41) = (  -0.0500000   0.2500000   0.1500000), wk =   0.0320000
        k(   42) = (   0.2500000   0.0500000   0.1500000), wk =   0.0320000
        k(   43) = (  -0.0500000   0.3500000   0.1500000), wk =   0.0320000
        k(   44) = (   0.3500000   0.0500000   0.1500000), wk =   0.0320000
        k(   45) = (  -0.0500000   0.4500000   0.1500000), wk =   0.0320000
        k(   46) = (   0.4500000   0.0500000   0.1500000), wk =   0.0320000
        k(   47) = (   0.2500000   0.0500000   0.2500000), wk =   0.0160000
        k(   48) = (  -0.0500000   0.3500000   0.2500000), wk =   0.0320000
        k(   49) = (   0.3500000   0.0500000   0.2500000), wk =   0.0320000
        k(   50) = (  -0.0500000   0.4500000   0.2500000), wk =   0.0320000
        k(   51) = (   0.4500000   0.0500000   0.2500000), wk =   0.0320000
        k(   52) = (   0.3500000   0.0500000   0.3500000), wk =   0.0160000
        k(   53) = (  -0.0500000   0.4500000   0.3500000), wk =   0.0320000
        k(   54) = (   0.4500000   0.0500000   0.3500000), wk =   0.0320000
        k(   55) = (   0.4500000   0.0500000   0.4500000), wk =   0.0160000
        k(   56) = (  -0.1500000   0.2500000   0.1500000), wk =   0.0160000
        k(   57) = (  -0.1500000   0.3500000   0.1500000), wk =   0.0160000
        k(   58) = (  -0.1500000   0.4500000   0.1500000), wk =   0.0160000
        k(   59) = (   0.2500000   0.1500000   0.2500000), wk =   0.0160000
        k(   60) = (  -0.1500000   0.3500000   0.2500000), wk =   0.0320000
        k(   61) = (   0.3500000   0.1500000   0.2500000), wk =   0.0320000
        k(   62) = (  -0.1500000   0.4500000   0.2500000), wk =   0.0320000
        k(   63) = (   0.4500000   0.1500000   0.2500000), wk =   0.0320000
        k(   64) = (   0.3500000   0.1500000   0.3500000), wk =   0.0160000
        k(   65) = (  -0.1500000   0.4500000   0.3500000), wk =   0.0320000
        k(   66) = (   0.4500000   0.1500000   0.3500000), wk =   0.0320000
        k(   67) = (   0.4500000   0.1500000   0.4500000), wk =   0.0160000
        k(   68) = (  -0.2500000   0.3500000   0.2500000), wk =   0.0160000
        k(   69) = (  -0.2500000   0.4500000   0.2500000), wk =   0.0160000
        k(   70) = (   0.3500000   0.2500000   0.3500000), wk =   0.0160000
        k(   71) = (  -0.2500000   0.4500000   0.3500000), wk =   0.0320000
        k(   72) = (   0.4500000   0.2500000   0.3500000), wk =   0.0320000
        k(   73) = (   0.4500000   0.2500000   0.4500000), wk =   0.0160000
        k(   74) = (  -0.3500000   0.4500000   0.3500000), wk =   0.0160000
        k(   75) = (   0.4500000   0.3500000   0.4500000), wk =   0.0160000

     Dense  grid:   160467 G-vectors     FFT dimensions: (  72,  72,  72)

     Smooth grid:    40651 G-vectors     FFT dimensions: (  45,  45,  45)

     Estimated max dynamical RAM per process >     759.22 MB

     Check: negative core charge=   -0.000006

     Initial potential from superposition of free atoms

     starting charge   42.99760, renormalised to   44.00000
     Starting wfcs are   31 randomized atomic wfcs

     total cpu time spent up to now is       11.2 secs

     Self-consistent Calculation

     iteration #  1     ecut=    80.00 Ry     beta= 0.70
     Davidson diagonalization with overlap
     ethr =  1.00E-02,  avg # of iterations =  2.0

     total cpu time spent up to now is       30.8 secs

     total energy              =    -364.38546749 Ry
     Harris-Foulkes estimate   =    -365.28894493 Ry
     estimated scf accuracy    <       1.13226729 Ry

     iteration #  2     ecut=    80.00 Ry     beta= 0.70
     Davidson diagonalization with overlap
     ethr =  2.57E-03,  avg # of iterations =  4.0

     total cpu time spent up to now is       57.9 secs

     total energy              =    -363.08400762 Ry
     Harris-Foulkes estimate   =    -365.87982127 Ry
     estimated scf accuracy    <      11.27223199 Ry

     iteration #  3     ecut=    80.00 Ry     beta= 0.70
     Davidson diagonalization with overlap
     ethr =  2.57E-03,  avg # of iterations =  5.2

     total cpu time spent up to now is       85.8 secs

     total energy              =    -364.93614855 Ry
     Harris-Foulkes estimate   =    -365.11185563 Ry
     estimated scf accuracy    <       0.47449229 Ry

     iteration #  4     ecut=    80.00 Ry     beta= 0.70
     Davidson diagonalization with overlap
     ethr =  1.08E-03,  avg # of iterations =  2.9

     total cpu time spent up to now is      105.3 secs

     total energy              =    -364.92255065 Ry
     Harris-Foulkes estimate   =    -364.97295511 Ry
     estimated scf accuracy    <       0.18434350 Ry

     iteration #  5     ecut=    80.00 Ry     beta= 0.70
     Davidson diagonalization with overlap
     ethr =  4.19E-04,  avg # of iterations =  4.4

     total cpu time spent up to now is      128.8 secs

     total energy              =    -364.95663760 Ry
     Harris-Foulkes estimate   =    -364.95721821 Ry
     estimated scf accuracy    <       0.00213470 Ry

     iteration #  6     ecut=    80.00 Ry     beta= 0.70
     Davidson diagonalization with overlap
     ethr =  4.85E-06,  avg # of iterations =  4.7

     total cpu time spent up to now is      155.7 secs

     total energy              =    -364.95740499 Ry
     Harris-Foulkes estimate   =    -364.95750914 Ry
     estimated scf accuracy    <       0.00029562 Ry

     iteration #  7     ecut=    80.00 Ry     beta= 0.70
     Davidson diagonalization with overlap
     ethr =  6.72E-07,  avg # of iterations =  3.0

     total cpu time spent up to now is      178.3 secs

     total energy              =    -364.95745329 Ry
     Harris-Foulkes estimate   =    -364.95747769 Ry
     estimated scf accuracy    <       0.00007787 Ry

     iteration #  8     ecut=    80.00 Ry     beta= 0.70
     Davidson diagonalization with overlap
     ethr =  1.77E-07,  avg # of iterations =  3.3

     total cpu time spent up to now is      199.9 secs

     total energy              =    -364.95746061 Ry
     Harris-Foulkes estimate   =    -364.95747987 Ry
     estimated scf accuracy    <       0.00008866 Ry

     iteration #  9     ecut=    80.00 Ry     beta= 0.70
     Davidson diagonalization with overlap
     ethr =  1.77E-07,  avg # of iterations =  2.2

     total cpu time spent up to now is      219.2 secs

     total energy              =    -364.95745381 Ry
     Harris-Foulkes estimate   =    -364.95746776 Ry
     estimated scf accuracy    <       0.00003240 Ry

     iteration # 10     ecut=    80.00 Ry     beta= 0.70
     Davidson diagonalization with overlap
     ethr =  7.36E-08,  avg # of iterations =  2.7

     total cpu time spent up to now is      239.6 secs

     total energy              =    -364.95745920 Ry
     Harris-Foulkes estimate   =    -364.95745928 Ry
     estimated scf accuracy    <       0.00000029 Ry

     iteration # 11     ecut=    80.00 Ry     beta= 0.70
     Davidson diagonalization with overlap
     ethr =  6.55E-10,  avg # of iterations =  4.0

     total cpu time spent up to now is      268.8 secs

     total energy              =    -364.95745955 Ry
     Harris-Foulkes estimate   =    -364.95745956 Ry
     estimated scf accuracy    <       0.00000002 Ry

     iteration # 12     ecut=    80.00 Ry     beta= 0.70
     Davidson diagonalization with overlap
     ethr =  4.66E-11,  avg # of iterations =  2.2

     total cpu time spent up to now is      289.3 secs

     End of self-consistent calculation

          k = 0.0500 0.0500 0.0500 (  5047 PWs)   bands (ev):

   -46.2310 -22.4873 -22.4718 -22.4717  -7.2240  -6.2064  -6.1818  -5.0220
    -5.0187  -5.0184  -4.8784  -4.8755   4.4958   6.8256   6.8358   6.9750
     9.0479   9.0557   9.1951   9.4567   9.5400   9.5986  12.3931  12.4882
    12.4926  14.5230

          k = 0.0500 0.0500 0.1500 (  5074 PWs)   bands (ev):

   -46.2308 -22.4870 -22.4824 -22.4714  -7.1384  -6.1745  -6.1506  -5.0301
    -5.0261  -5.0180  -4.9111  -4.8713   4.1985   6.8702   6.9047   7.1652
     8.8106   8.8715   9.1892   9.3038   9.4135   9.5727  12.4917  12.7232
    12.7687  14.5695

          k = 0.0500 0.0500 0.2500 (  5093 PWs)   bands (ev):

   -46.2304 -22.4996 -22.4863 -22.4707  -6.9953  -6.1195  -6.0998  -5.0454
    -5.0368  -5.0170  -4.9675  -4.8650   3.8309   6.8582   7.0342   7.1596
     8.5056   8.5757   9.1311   9.2310   9.4626   9.6428  12.4952  13.1954
    13.2176  14.5690

          k = 0.0500 0.0500 0.3500 (  5090 PWs)   bands (ev):

   -46.2301 -22.5167 -22.4857 -22.4701  -6.8451  -6.0607  -6.0475  -5.0701
    -5.0460  -5.0214  -5.0161  -4.8607   3.5459   6.4678   7.2082   7.3089
     8.1681   8.2350   9.0640   9.3242   9.5550  10.0048  12.4971  13.6287
    13.6483  14.3253

          k = 0.0500 0.0500 0.4500 (  5073 PWs)   bands (ev):

   -46.2299 -22.5272 -22.4853 -22.4697  -6.7479  -6.0265  -6.0098  -5.1007
    -5.0514  -5.0434  -5.0156  -4.8592   3.3999   6.1508   7.3828   7.5523
     7.8904   7.9141   9.0199   9.3812   9.5996  10.4458  12.4945  13.5959
    13.8865  13.9099

          k = 0.0500 0.1500 0.1500 (  5079 PWs)   bands (ev):

   -46.2305 -22.4977 -22.4820 -22.4710  -7.0524  -6.1469  -6.1238  -5.0377
    -5.0290  -5.0245  -4.9066  -4.8872   3.9811   6.8228   6.9478   7.3342
     8.4984   8.7095   9.0707   9.3075   9.3543   9.5742  12.7179  12.8114
    13.0153  14.7927

          k = 0.0500 0.1500 0.2500 (  5077 PWs)   bands (ev):

   -46.2302 -22.4993 -22.4968 -22.4703  -6.9150  -6.1014  -6.0755  -5.0545
    -5.0369  -5.0241  -4.9358  -4.8813   3.6855   6.7752   7.0492   7.2644
     8.2039   8.4778   8.8798   9.2665   9.3541   9.7555  12.8029  13.1994
    13.3875  14.8626

          k = 0.0500 0.1500 0.3500 (  5080 PWs)   bands (ev):

   -46.2299 -22.5162 -22.4963 -22.4697  -6.7745  -6.0544  -6.0223  -5.0752
    -5.0435  -5.0237  -4.9653  -4.8767   3.4396   6.4606   7.1237   7.3275
     7.9176   8.2434   8.8608   9.2968   9.3423  10.0349  12.7985  13.6299
    13.7682  14.4850

          k = 0.0500 0.1500 0.4500 (  5079 PWs)   bands (ev):

   -46.2297 -22.5267 -22.4959 -22.4693  -6.6864  -6.0214  -5.9890  -5.0923
    -5.0497  -5.0234  -4.9761  -4.8777   3.3085   6.1583   7.2294   7.4717
     7.7703   7.9525   8.9384   9.2992   9.3533  10.2549  12.7860  13.8847
    13.9916  14.0153

          k = 0.0500 0.2500 0.2500 (  5076 PWs)   bands (ev):

   -46.2299 -22.5142 -22.4984 -22.4697  -6.7880  -6.0754  -6.0229  -5.0594
    -5.0398  -5.0304  -4.9088  -4.8982   3.4668   6.6995   7.0388   7.2025
     7.9920   8.1404   8.6884   9.0808   9.5614   9.8580  13.1744  13.2768
    13.6772  14.9545

          k = 0.0500 0.2500 0.3500 (  5080 PWs)   bands (ev):

   -46.2295 -22.5155 -22.5133 -22.4691  -6.6743  -6.0365  -5.9625  -5.0684
    -5.0431  -5.0325  -4.9212  -4.8783   3.2716   6.4557   6.9047   7.2705
     7.7754   8.0920   8.5101   9.0110   9.6550   9.9134  13.2455  13.6265
    13.9744  14.7437

          k = 0.0500 0.2500 0.4500 (  5084 PWs)   bands (ev):

   -46.2293 -22.5259 -22.5130 -22.4687  -6.6112  -5.9998  -5.9247  -5.0774
    -5.0482  -5.0344  -4.9150  -4.8755   3.1615   6.1680   6.9559   7.2262
     7.7571   8.0409   8.4298   9.0353   9.6284   9.9511  13.2383  13.8803
    14.1738  14.5783

          k = 0.0500 0.3500 0.3500 (  5079 PWs)   bands (ev):

   -46.2292 -22.5304 -22.5146 -22.4684  -6.6006  -5.9763  -5.9018  -5.0657
    -5.0467  -5.0338  -4.9419  -4.8238   3.1104   6.3831   6.5475   7.3133
     7.6576   7.9554   8.4307   8.8091   9.6196   9.9591  13.6006  13.6885
    14.1969  14.9938

          k = 0.0500 0.3500 0.4500 (  5079 PWs)   bands (ev):

   -46.2290 -22.5299 -22.5250 -22.4680  -6.5730  -5.9236  -5.8551  -5.0684
    -5.0472  -5.0393  -4.9511  -4.7907   3.0169   6.1508   6.5029   7.2886
     7.5811   8.0999   8.2829   8.7467   9.3983  10.0847  13.6697  13.8740
    14.3619  15.1044

          k = 0.0500 0.4500 0.4500 (  5100 PWs)   bands (ev):

   -46.2288 -22.5404 -22.5245 -22.4676  -6.5660  -5.8498  -5.8103  -5.0688
    -5.0457  -5.0406  -4.9743  -4.7417   2.9291   6.0330   6.3306   7.3682
     7.4161   8.1738   8.3023   8.5719   9.0917  10.2542  13.8677  13.9314
    14.4984  15.3685

          k = 0.1500 0.1500 0.1500 (  5095 PWs)   bands (ev):

   -46.2303 -22.4973 -22.4817 -22.4815  -6.9709  -6.1247  -6.0999  -5.0426
    -5.0411  -5.0219  -4.8965  -4.8938   3.8301   6.8240   6.8334   7.4631
     8.3244   8.3571   9.1821   9.3079   9.3839   9.4440  12.9571  13.0113
    13.0171  15.3264

          k = 0.1500 0.1500 0.2500 (  5084 PWs)   bands (ev):

   -46.2300 -22.4988 -22.4964 -22.4809  -6.8379  -6.0908  -6.0556  -5.0612
    -5.0403  -5.0173  -4.9139  -4.8812   3.6024   6.7471   6.8384   7.3105
     8.0195   8.1569   8.9949   9.3234   9.4449   9.6286  12.9799  13.3362
    13.3794  15.1659

          k = 0.1500 0.1500 0.3500 (  5082 PWs)   bands (ev):

   -46.2297 -22.5157 -22.4959 -22.4803  -6.7051  -6.0576  -6.0042  -5.0760
    -5.0342  -5.0084  -4.9373  -4.8763   3.3977   6.4634   6.8367   7.1925
     7.7870   8.2198   8.6853   9.3956   9.4620   9.8779  12.9193  13.7015
    13.7492  14.6560

          k = 0.1500 0.1500 0.4500 (  5084 PWs)   bands (ev):

   -46.2294 -22.5262 -22.4955 -22.4798  -6.6241  -6.0369  -5.9681  -5.0825
    -5.0301  -4.9971  -4.9550  -4.8792   3.2837   6.1651   6.8280   7.2562
     7.6765   8.3060   8.4811   9.4382   9.4542  10.0052  12.8583  13.9329
    13.9868  14.4212

          k = 0.1500 0.2500 0.2500 (  5081 PWs)   bands (ev):

   -46.2297 -22.5137 -22.4980 -22.4803  -6.7089  -6.0665  -6.0297  -5.0629
    -5.0469  -5.0038  -4.8874  -4.8813   3.4571   6.6400   6.7497   7.1197
     7.6723   7.9087   9.0895   9.1889   9.5885   9.6810  13.2338  13.3710
    13.6207  14.9370

          k = 0.1500 0.2500 0.3500 (  5080 PWs)   bands (ev):

   -46.2293 -22.5151 -22.5129 -22.4796  -6.5955  -6.0516  -5.9753  -5.0665
    -5.0389  -4.9881  -4.8926  -4.8629   3.3127   6.4438   6.6744   6.8666
     7.4354   7.9363   8.8740   9.2410   9.6301   9.7494  13.2214  13.6528
    13.8939  14.8946

          k = 0.1500 0.2500 0.4500 (  5077 PWs)   bands (ev):

   -46.2291 -22.5254 -22.5125 -22.4792  -6.5333  -6.0389  -5.9341  -5.0666
    -5.0319  -4.9774  -4.8907  -4.8615   3.2258   6.1705   6.6069   6.8483
     7.3771   8.0298   8.6647   9.3189   9.5405   9.7953  13.1886  13.8823
    14.0956  14.9665

          k = 0.1500 0.3500 0.3500 (  5081 PWs)   bands (ev):

   -46.2290 -22.5300 -22.5142 -22.4789  -6.5145  -6.0089  -5.9443  -5.0606
    -5.0297  -4.9702  -4.8993  -4.8085   3.2141   6.3600   6.5016   6.6555
     7.0615   7.9011   8.8883   9.0985   9.4019   9.9589  13.5029  13.6907
    14.0849  15.1764

          k = 0.1500 0.3500 0.4500 (  5079 PWs)   bands (ev):

   -46.2288 -22.5295 -22.5246 -22.4785  -6.4862  -5.9822  -5.9006  -5.0573
    -5.0158  -4.9625  -4.9076  -4.7755   3.1508   6.1470   6.4500   6.5927
     6.9457   7.9491   8.7212   9.1140   9.2013  10.0795  13.5904  13.8430
    14.2434  15.4484

          k = 0.1500 0.4500 0.4500 (  5073 PWs)   bands (ev):

   -46.2286 -22.5400 -22.5241 -22.4781  -6.4788  -5.9177  -5.8818  -5.0532
    -4.9924  -4.9491  -4.9322  -4.7254   3.0971   6.0241   6.3168   6.6434
     6.7060   7.9588   8.5140   9.0349   9.0814  10.2481  13.8174  13.8716
    14.3673  15.7700

          k = 0.2500 0.2500 0.2500 (  5070 PWs)   bands (ev):

   -46.2293 -22.5130 -22.4974 -22.4971  -6.5871  -6.0536  -6.0301  -5.0514
    -5.0505  -4.9726  -4.8609  -4.8562   3.4223   6.4824   6.4978   7.0417
     7.3837   7.4063   9.2266   9.4653   9.4791   9.6906  13.2661  13.5900
    13.5914  14.9410

          k = 0.2500 0.2500 0.3500 (  5072 PWs)   bands (ev):

   -46.2290 -22.5143 -22.5122 -22.4966  -6.4804  -6.0614  -5.9904  -5.0488
    -5.0338  -4.9347  -4.8438  -4.8369   3.3658   6.2995   6.3766   6.6293
     7.1922   7.3583   8.9350   9.5213   9.5628   9.8066  13.2846  13.7098
    13.8741  15.1496

          k = 0.2500 0.2500 0.4500 (  5073 PWs)   bands (ev):

   -46.2288 -22.5246 -22.5119 -22.4961  -6.4266  -6.0690  -5.9487  -5.0453
    -5.0226  -4.8942  -4.8498  -4.8263   3.3226   6.1615   6.1900   6.4990
     7.1549   7.4019   8.6751   9.5095   9.5837   9.8629  13.3238  13.8648
    14.0781  15.4408

          k = 0.2500 0.3500 0.3500 (  5057 PWs)   bands (ev):

   -46.2286 -22.5293 -22.5135 -22.4959  -6.3798  -6.0490  -6.0043  -5.0368
    -5.0164  -4.8895  -4.8243  -4.7792   3.3923   6.1179   6.1821   6.4314
     6.7623   7.2517   8.4900   9.6138   9.6629   9.9690  13.4705  13.7917
    14.0143  15.4853

          k = 0.2500 0.3500 0.4500 (  5063 PWs)   bands (ev):

   -46.2284 -22.5288 -22.5239 -22.4955  -6.3484  -6.0568  -5.9639  -5.0312
    -5.0013  -4.8516  -4.8220  -4.7455   3.3975   6.0090   6.1236   6.1835
     6.6518   7.2619   8.1192   9.6460   9.6576  10.0806  13.6273  13.8659
    14.1700  15.8543

          k = 0.2500 0.4500 0.4500 (  5070 PWs)   bands (ev):

   -46.2282 -22.5393 -22.5234 -22.4950  -6.3364  -6.0069  -5.9743  -5.0255
    -4.9831  -4.8238  -4.8094  -4.6944   3.4284   5.9554   6.0306   6.0766
     6.3791   7.2513   7.6697   9.6498   9.6901  10.2388  13.8451  13.9031
    14.2794  16.1982

          k = 0.3500 0.3500 0.3500 (  5055 PWs)   bands (ev):

   -46.2283 -22.5286 -22.5128 -22.5127  -6.2701  -6.0665  -6.0465  -5.0107
    -5.0081  -4.8146  -4.7522  -4.7448   3.5795   5.8407   5.8601   6.3204
     6.7033   6.7143   7.8307   9.8911   9.9190  10.0249  13.6293  13.9916
    13.9922  15.8704

          k = 0.3500 0.3500 0.4500 (  5056 PWs)   bands (ev):

   -46.2281 -22.5281 -22.5231 -22.5123  -6.2370  -6.0909  -6.0187  -5.0051
    -4.9930  -4.7589  -4.7350  -4.7056   3.6937   5.6648   5.7907   6.0918
     6.5717   6.7040   7.3367   9.9410  10.0062  10.1254  13.8190  13.9874
    14.1633  16.2693

          k = 0.3500 0.4500 0.4500 (  5051 PWs)   bands (ev):

   -46.2279 -22.5386 -22.5227 -22.5119  -6.1942  -6.0798  -6.0503  -4.9977
    -4.9802  -4.7126  -4.6964  -4.6560   3.9005   5.5710   5.6140   5.9603
     6.3658   6.6509   6.7400  10.0458  10.0811  10.2302  14.0038  14.0607
    14.2368  16.6477

          k = 0.4500 0.4500 0.4500 (  5034 PWs)   bands (ev):

   -46.2277 -22.5381 -22.5223 -22.5222  -6.1302  -6.0993  -6.0885  -4.9810
    -4.9781  -4.6470  -4.6323  -4.6279   4.3950   5.3720   5.3876   5.8525
     5.9527   6.3633   6.3872  10.2167  10.2255  10.2550  14.1676  14.2166
    14.2170  17.0145

          k =-0.0500 0.1500 0.0500 (  5074 PWs)   bands (ev):

   -46.2308 -22.4981 -22.4714 -22.4713  -7.1357  -6.1763  -6.1499  -5.0276
    -5.0253  -5.0213  -4.9093  -4.8735   4.1971   6.8674   6.8919   7.1677
     8.8051   8.8464   9.1948   9.2530   9.5363   9.5417  12.3949  12.8013
    12.8054  14.5236

          k =-0.0500 0.2500 0.0500 (  5093 PWs)   bands (ev):

   -46.2304 -22.5153 -22.4707 -22.4707  -6.9873  -6.1287  -6.0942  -5.0438
    -5.0353  -5.0204  -4.9664  -4.8673   3.8267   6.8503   7.0139   7.1469
     8.4746   8.5323   9.1406   9.2459   9.5642   9.6536  12.3978  13.2559
    13.2662  14.5245

          k =-0.0500 0.3500 0.0500 (  5090 PWs)   bands (ev):

   -46.2301 -22.5325 -22.4701 -22.4701  -6.8304  -6.0836  -6.0315  -5.0702
    -5.0441  -5.0201  -5.0195  -4.8631   3.5386   6.4530   7.1713   7.2764
     8.1516   8.1948   9.0744   9.4162   9.6096  10.0293  12.3996  13.6784
    13.6902  14.3403

          k =-0.0500 0.4500 0.0500 (  5073 PWs)   bands (ev):

   -46.2299 -22.5431 -22.4697 -22.4697  -6.7279  -6.0579  -5.9881  -5.1026
    -5.0490  -5.0419  -5.0189  -4.8617   3.3905   6.1306   7.3168   7.4811
     7.9013   7.9181   9.0322   9.4955   9.6427  10.4714  12.3979  13.6075
    13.9305  13.9420

          k = 0.1500 0.0500 0.1500 (  5079 PWs)   bands (ev):

   -46.2305 -22.4866 -22.4821 -22.4819  -7.0557  -6.1505  -6.1182  -5.0399
    -5.0268  -5.0238  -4.9086  -4.8856   3.9829   6.8216   6.9625   7.3300
     8.5362   8.6472   9.1430   9.2696   9.3358   9.5859  12.7435  12.7922
    12.9757  14.8378

          k =-0.0500 0.2500 0.1500 (  5077 PWs)   bands (ev):

   -46.2302 -22.5149 -22.4813 -22.4703  -6.9099  -6.1038  -6.0754  -5.0542
    -5.0344  -5.0271  -4.9346  -4.8833   3.6828   6.7648   7.0367   7.2624
     8.1784   8.4658   8.8733   9.3214   9.3714   9.7651  12.7224  13.2625
    13.4042  14.8468

          k = 0.2500 0.0500 0.1500 (  5077 PWs)   bands (ev):

   -46.2302 -22.4992 -22.4859 -22.4813  -6.9195  -6.1076  -6.0654  -5.0550
    -5.0346  -5.0241  -4.9375  -4.8817   3.6875   6.7797   7.0523   7.2632
     8.2012   8.4446   8.8972   9.2897   9.3839   9.7360  12.7645  13.2141
    13.3704  14.8935

          k =-0.0500 0.3500 0.1500 (  5080 PWs)   bands (ev):

   -46.2299 -22.5320 -22.4807 -22.4697  -6.7633  -6.0575  -6.0242  -5.0758
    -5.0403  -5.0270  -4.9647  -4.8789   3.4338   6.4406   7.0929   7.3147
     7.9032   8.2161   8.8910   9.3189   9.4002  10.0578  12.7168  13.6839
    13.7831  14.5061

          k = 0.3500 0.0500 0.1500 (  5080 PWs)   bands (ev):

   -46.2299 -22.5162 -22.4853 -22.4806  -6.7809  -6.0561  -6.0139  -5.0749
    -5.0405  -5.0237  -4.9692  -4.8772   3.4415   6.4639   7.1108   7.3371
     7.9076   8.2575   8.8077   9.3176   9.4072  10.0258  12.7571  13.6418
    13.7544  14.5024

          k =-0.0500 0.4500 0.1500 (  5079 PWs)   bands (ev):

   -46.2297 -22.5426 -22.4802 -22.4693  -6.6709  -6.0230  -5.9941  -5.0942
    -5.0460  -5.0267  -4.9757  -4.8800   3.3007   6.1331   7.1700   7.4583
     7.7550   7.9553   8.9799   9.2961   9.4319  10.2856  12.7042  13.9348
    13.9813  14.0533

          k = 0.4500 0.0500 0.1500 (  5079 PWs)   bands (ev):

   -46.2297 -22.5267 -22.4849 -22.4802  -6.6946  -6.0141  -5.9869  -5.0921
    -5.0460  -5.0234  -4.9816  -4.8779   3.3103   6.1591   7.2150   7.4684
     7.7786   7.9719   8.8632   9.2996   9.4446  10.2608  12.7406  13.9026
    13.9860  14.0120

          k = 0.2500 0.0500 0.2500 (  5076 PWs)   bands (ev):

   -46.2299 -22.4987 -22.4982 -22.4852  -6.8011  -6.0783  -6.0085  -5.0588
    -5.0380  -5.0293  -4.9080  -4.9032   3.4717   6.7225   7.0232   7.2211
     7.9902   8.0776   8.7629   9.0838   9.5908   9.8188  13.1607  13.2529
    13.6591  14.9892

          k =-0.0500 0.3500 0.2500 (  5080 PWs)   bands (ev):

   -46.2295 -22.5312 -22.4977 -22.4690  -6.6691  -6.0301  -5.9707  -5.0688
    -5.0419  -5.0338  -4.9215  -4.8789   3.2686   6.4293   6.9144   7.2511
     7.7834   8.0834   8.4978   9.0616   9.6360   9.9430  13.1794  13.6830
    13.9749  14.7616

          k = 0.3500 0.0500 0.2500 (  5080 PWs)   bands (ev):

   -46.2295 -22.5154 -22.4977 -22.4846  -6.6925  -6.0283  -5.9520  -5.0671
    -5.0406  -5.0317  -4.9222  -4.8844   3.2762   6.4667   6.8989   7.2708
     7.7661   8.0615   8.5259   9.0665   9.6609   9.9129  13.1894  13.6395
    13.9584  14.7620

          k =-0.0500 0.4500 0.2500 (  5084 PWs)   bands (ev):

   -46.2293 -22.5417 -22.4972 -22.4686  -6.6033  -5.9772  -5.9492  -5.0790
    -5.0445  -5.0376  -4.9165  -4.8753   3.1565   6.1347   6.9575   7.2050
     7.7769   8.0071   8.4405   9.0939   9.5998   9.9969  13.1708  13.9353
    14.1656  14.6105

          k = 0.4500 0.0500 0.2500 (  5084 PWs)   bands (ev):

   -46.2293 -22.5259 -22.4973 -22.4842  -6.6333  -5.9781  -5.9224  -5.0765
    -5.0443  -5.0345  -4.9158  -4.8831   3.1658   6.1700   6.9623   7.2013
     7.7772   8.0472   8.3759   9.1120   9.6119   9.9860  13.1793  13.9001
    14.1542  14.5904

          k = 0.3500 0.0500 0.3500 (  5079 PWs)   bands (ev):

   -46.2292 -22.5148 -22.5145 -22.4840  -6.6299  -5.9612  -5.8875  -5.0635
    -5.0450  -5.0320  -4.9424  -4.8328   3.1173   6.4353   6.5203   7.3062
     7.6072   7.9581   8.4835   8.8183   9.6153   9.9801  13.5872  13.6653
    14.1805  14.9981

          k =-0.0500 0.4500 0.3500 (  5079 PWs)   bands (ev):

   -46.2290 -22.5409 -22.5141 -22.4680  -6.5709  -5.9048  -5.8735  -5.0693
    -5.0458  -5.0403  -4.9519  -4.7905   3.0149   6.1166   6.5306   7.2656
     7.6149   8.0570   8.2897   8.7784   9.3942  10.0957  13.6080  13.9332
    14.3563  15.1321

          k = 0.4500 0.0500 0.3500 (  5079 PWs)   bands (ev):

   -46.2290 -22.5250 -22.5141 -22.4836  -6.6053  -5.8929  -5.8515  -5.0666
    -5.0441  -5.0384  -4.9522  -4.8007   3.0231   6.1553   6.5276   7.2467
     7.5604   8.1024   8.3026   8.7835   9.3983  10.1179  13.6190  13.8958
    14.3397  15.1137

          k = 0.4500 0.0500 0.4500 (  5100 PWs)   bands (ev):

   -46.2288 -22.5246 -22.5245 -22.4832  -6.6017  -5.8175  -5.8050  -5.0662
    -5.0428  -5.0394  -4.9761  -4.7527   2.9364   6.0499   6.3541   7.3266
     7.3627   8.2215   8.3374   8.5592   9.1081  10.2842  13.8855  13.8981
    14.4723  15.3475

          k =-0.1500 0.2500 0.1500 (  5084 PWs)   bands (ev):

   -46.2300 -22.5145 -22.4810 -22.4808  -6.8317  -6.0811  -6.0693  -5.0611
    -5.0414  -5.0172  -4.9113  -4.8833   3.5994   6.7426   6.8197   7.3128
     8.0162   8.1670   8.9375   9.3827   9.4532   9.6319  12.9367  13.3750
    13.3965  15.1714

          k =-0.1500 0.3500 0.1500 (  5082 PWs)   bands (ev):

   -46.2297 -22.5315 -22.4803 -22.4802  -6.6913  -6.0375  -6.0336  -5.0771
    -5.0362  -5.0071  -4.9342  -4.8786   3.3916   6.4431   6.8018   7.1987
     7.8050   8.2119   8.6599   9.4261   9.4806   9.8984  12.8759  13.7490
    13.7544  14.6657

          k =-0.1500 0.4500 0.1500 (  5084 PWs)   bands (ev):

   -46.2294 -22.5421 -22.4799 -22.4798  -6.6049  -6.0171  -6.0008  -5.0845
    -5.0328  -4.9946  -4.9514  -4.8819   3.2756   6.1390   6.7821   7.2616
     7.7058   8.2512   8.5151   9.4356   9.4982  10.0315  12.8156  13.9796
    13.9862  14.4361

          k = 0.2500 0.1500 0.2500 (  5081 PWs)   bands (ev):

   -46.2297 -22.4984 -22.4978 -22.4957  -6.7177  -6.0718  -6.0166  -5.0620
    -5.0464  -5.0034  -4.8859  -4.8851   3.4603   6.6492   6.7589   7.1158
     7.6629   7.9018   9.1304   9.1885   9.6186   9.6249  13.2386  13.3622
    13.6029  14.9401

          k =-0.1500 0.3500 0.2500 (  5080 PWs)   bands (ev):

   -46.2293 -22.5308 -22.4973 -22.4796  -6.5888  -6.0370  -5.9942  -5.0673
    -5.0401  -4.9860  -4.8922  -4.8639   3.3095   6.4211   6.6526   6.8748
     7.4738   7.9263   8.8179   9.3010   9.6196   9.7682  13.1812  13.6928
    13.8942  14.9011

          k = 0.3500 0.1500 0.2500 (  5080 PWs)   bands (ev):

   -46.2293 -22.5150 -22.4974 -22.4951  -6.6084  -6.0443  -5.9696  -5.0654
    -5.0389  -4.9857  -4.8918  -4.8685   3.3158   6.4523   6.6694   6.8614
     7.4498   7.9174   8.8696   9.2813   9.6015   9.7699  13.1984  13.6648
    13.8798  14.8974

          k =-0.1500 0.4500 0.2500 (  5077 PWs)   bands (ev):

   -46.2291 -22.5413 -22.4968 -22.4792  -6.5230  -6.0133  -5.9660  -5.0682
    -5.0340  -4.9721  -4.8935  -4.8611   3.2203   6.1389   6.5691   6.8674
     7.4304   8.0154   8.6147   9.3698   9.5374   9.8168  13.1458  13.9259
    14.0927  14.9838

          k = 0.4500 0.1500 0.2500 (  5077 PWs)   bands (ev):

   -46.2291 -22.5254 -22.4970 -22.4947  -6.5497  -6.0226  -5.9334  -5.0657
    -5.0323  -4.9722  -4.8910  -4.8687   3.2287   6.1721   6.5964   6.8502
     7.4010   8.0026   8.6646   9.3480   9.5129   9.8313  13.1626  13.8972
    14.0809  14.9703

          k = 0.3500 0.1500 0.3500 (  5081 PWs)   bands (ev):

   -46.2290 -22.5143 -22.5140 -22.4945  -6.5410  -5.9964  -5.9309  -5.0585
    -5.0297  -4.9676  -4.8973  -4.8175   3.2203   6.4309   6.4479   6.6531
     7.0558   7.8863   8.9132   9.1097   9.3796   9.9838  13.4961  13.6803
    14.0717  15.1751

          k =-0.1500 0.4500 0.3500 (  5079 PWs)   bands (ev):

   -46.2288 -22.5405 -22.5137 -22.4785  -6.4835  -5.9558  -5.9280  -5.0579
    -5.0177  -4.9570  -4.9114  -4.7751   3.1486   6.1108   6.4783   6.5703
     6.9801   7.9397   8.6934   9.1234   9.2246  10.0830  13.5494  13.8855
    14.2407  15.4620

          k = 0.4500 0.1500 0.3500 (  5079 PWs)   bands (ev):

   -46.2288 -22.5246 -22.5137 -22.4941  -6.5162  -5.9535  -5.8990  -5.0552
    -5.0170  -4.9563  -4.9074  -4.7857   3.1566   6.1519   6.4668   6.5729
     6.9535   7.9272   8.7302   9.1208   9.2079  10.1096  13.5610  13.8575
    14.2287  15.4513

          k = 0.4500 0.1500 0.4500 (  5073 PWs)   bands (ev):

   -46.2286 -22.5241 -22.5241 -22.4937  -6.5132  -5.8883  -5.8771  -5.0507
    -4.9933  -4.9447  -4.9301  -4.7369   3.1045   6.0420   6.3424   6.6241
     6.6833   7.9419   8.5321   9.0545   9.0736  10.2786  13.8237  13.8540
    14.3530  15.7647

          k =-0.2500 0.3500 0.2500 (  5072 PWs)   bands (ev):

   -46.2290 -22.5300 -22.4967 -22.4964  -6.4693  -6.0437  -6.0178  -5.0503
    -5.0337  -4.9345  -4.8458  -4.8333   3.3621   6.2798   6.3708   6.6255
     7.2631   7.3152   8.9109   9.5294   9.5855   9.7956  13.2685  13.7320
    13.8761  15.1514

          k =-0.2500 0.4500 0.2500 (  5073 PWs)   bands (ev):

   -46.2288 -22.5405 -22.4962 -22.4960  -6.4088  -6.0523  -5.9809  -5.0474
    -5.0230  -4.8925  -4.8537  -4.8212   3.3163   6.1432   6.1504   6.5233
     7.2241   7.3639   8.6523   9.5036   9.6196   9.8502  13.3012  13.8959
    14.0800  15.4494

          k = 0.3500 0.2500 0.3500 (  5057 PWs)   bands (ev):

   -46.2286 -22.5138 -22.5134 -22.5114  -6.3984  -6.0429  -5.9925  -5.0347
    -5.0178  -4.8871  -4.8199  -4.7875   3.3964   6.1297   6.1767   6.4301
     6.7753   7.2317   8.4958   9.6268   9.6361   9.9926  13.4700  13.7873
    14.0075  15.4842

          k =-0.2500 0.4500 0.3500 (  5063 PWs)   bands (ev):

   -46.2284 -22.5397 -22.5130 -22.4955  -6.3434  -6.0309  -5.9938  -5.0319
    -5.0015  -4.8494  -4.8241  -4.7445   3.3946   5.9702   6.1290   6.1957
     6.6824   7.2506   8.1173   9.6137   9.6933  10.0789  13.6042  13.8929
    14.1693  15.8571

          k = 0.4500 0.2500 0.3500 (  5063 PWs)   bands (ev):

   -46.2284 -22.5239 -22.5131 -22.5111  -6.3718  -6.0345  -5.9633  -5.0293
    -5.0029  -4.8459  -4.8192  -4.7552   3.4016   5.9977   6.1468   6.1663
     6.6780   7.2350   8.1253   9.6290   9.6649  10.1068  13.6167  13.8720
    14.1631  15.8532

          k = 0.4500 0.2500 0.4500 (  5070 PWs)   bands (ev):

   -46.2282 -22.5234 -22.5234 -22.5108  -6.3684  -5.9802  -5.9702  -5.0231
    -4.9852  -4.8159  -4.8065  -4.7067   3.4357   5.9791   6.0283   6.0542
     6.3927   7.2260   7.6824   9.6654   9.6667  10.2697  13.8478  13.8953
    14.2715  16.1939

          k =-0.3500 0.4500 0.3500 (  5056 PWs)   bands (ev):

   -46.2281 -22.5390 -22.5124 -22.5122  -6.2210  -6.0770  -6.0478  -5.0071
    -4.9913  -4.7644  -4.7345  -4.7001   3.6894   5.6466   5.8171   6.0746
     6.5848   6.7016   7.3359   9.9743   9.9835  10.1091  13.8077  14.0024
    14.1645  16.2696

          k = 0.4500 0.3500 0.4500 (  5051 PWs)   bands (ev):

   -46.2279 -22.5277 -22.5227 -22.5227  -6.2222  -6.0561  -6.0467  -4.9953
    -4.9824  -4.7039  -4.6932  -4.6682   3.9067   5.5733   5.6000   5.9667
     6.3860   6.6279   6.7447  10.0501  10.0541  10.2608  14.0070  14.0586
    14.2317  16.6462

     the Fermi energy is    10.4212 ev

!    total energy              =    -364.95745955 Ry
     Harris-Foulkes estimate   =    -364.95745956 Ry
     estimated scf accuracy    <          3.0E-09 Ry

     The total energy is the sum of the following terms:

     one-electron contribution =     -82.81246618 Ry
     hartree contribution      =      70.77576811 Ry
     xc contribution           =     -85.80112801 Ry
     ewald contribution        =    -267.12581334 Ry
     smearing contrib. (-TS)   =       0.00617986 Ry

     convergence has been achieved in  12 iterations

     Forces acting on atoms (cartesian axes, Ry/au):

     atom    1 type  1   force =     0.00000000    0.00762290    0.00000000
     atom    2 type  2   force =     0.00000000   -0.00208723    0.00000000
     atom    3 type  3   force =     0.00000000    0.00013013    0.00000000
     atom    4 type  3   force =     0.00000000   -0.00579592    0.00000000
     atom    5 type  3   force =     0.00000000    0.00013013    0.00000000

     Total force =     0.005799     Total SCF correction =     0.000038


     Computing stress (Cartesian axis) and pressure

          total   stress  (Ry/bohr**3)                   (kbar)     P=    1.19
  -0.00000756   0.00000000   0.00000000         -1.11      0.00      0.00
   0.00000000   0.00003930   0.00000000          0.00      5.78      0.00
   0.00000000   0.00000000  -0.00000756          0.00      0.00     -1.11


     BFGS Geometry Optimization

     number of scf cycles    =   1
     number of bfgs steps    =   0

     energy   new            =    -364.9574595536 Ry

     new trust radius        =       0.0057959225 bohr
     new conv_thr            =       0.0000000100 Ry


ATOMIC_POSITIONS (crystal)
Pb       0.000000000   0.000000000   0.000000000    0   0   0
Ti       0.500000000   0.520000000   0.500000000    0   0   0
O        0.500000000   0.500017373   0.000000000
O        0.500000000  -0.000773821   0.500000000
O        0.000000000   0.500017373   0.500000000



     Writing output data file PbTiO3.save/
     NEW-OLD atomic charge density approx. for the potential

     Check: negative core charge=   -0.000006

     total cpu time spent up to now is      307.2 secs

     Self-consistent Calculation

     iteration #  1     ecut=    80.00 Ry     beta= 0.70
     Davidson diagonalization with overlap
     ethr =  1.00E-06,  avg # of iterations =  3.0

     Threshold (ethr) on eigenvalues was too large:
     Diagonalizing with lowered threshold

     Davidson diagonalization with overlap
     ethr =  1.39E-08,  avg # of iterations =  2.3

     total cpu time spent up to now is      347.6 secs

     total energy              =    -364.95748818 Ry
     Harris-Foulkes estimate   =    -364.95749197 Ry
     estimated scf accuracy    <       0.00000606 Ry

     iteration #  2     ecut=    80.00 Ry     beta= 0.70
     Davidson diagonalization with overlap
     ethr =  1.38E-08,  avg # of iterations =  3.0

     total cpu time spent up to now is      369.8 secs

     total energy              =    -364.95748818 Ry
     Harris-Foulkes estimate   =    -364.95749073 Ry
     estimated scf accuracy    <       0.00000457 Ry

     iteration #  3     ecut=    80.00 Ry     beta= 0.70
     Davidson diagonalization with overlap
     ethr =  1.04E-08,  avg # of iterations =  3.5

     total cpu time spent up to now is      392.0 secs

     total energy              =    -364.95748916 Ry
     Harris-Foulkes estimate   =    -364.95749051 Ry
     estimated scf accuracy    <       0.00000407 Ry

     iteration #  4     ecut=    80.00 Ry     beta= 0.70
     Davidson diagonalization with overlap
     ethr =  9.25E-09,  avg # of iterations =  2.8

     total cpu time spent up to now is      411.8 secs

     total energy              =    -364.95748978 Ry
     Harris-Foulkes estimate   =    -364.95748981 Ry
     estimated scf accuracy    <       0.00000006 Ry

     iteration #  5     ecut=    80.00 Ry     beta= 0.70
     Davidson diagonalization with overlap
     ethr =  1.43E-10,  avg # of iterations =  3.9

     total cpu time spent up to now is      437.0 secs

     total energy              =    -364.95748980 Ry
     Harris-Foulkes estimate   =    -364.95748984 Ry
     estimated scf accuracy    <       0.00000011 Ry

     iteration #  6     ecut=    80.00 Ry     beta= 0.70
     Davidson diagonalization with overlap
     ethr =  1.43E-10,  avg # of iterations =  2.9

     total cpu time spent up to now is      457.9 secs

     End of self-consistent calculation

          k = 0.0500 0.0500 0.0500 (  5047 PWs)   bands (ev):

   -46.2275 -22.4854 -22.4684 -22.4684  -7.2238  -6.2073  -6.1812  -5.0228
    -5.0194  -5.0190  -4.8791  -4.8761   4.4953   6.8257   6.8365   6.9754
     9.0450   9.0527   9.1951   9.4539   9.5400   9.5973  12.3957  12.4942
    12.4985  14.5260

          k = 0.0500 0.0500 0.1500 (  5074 PWs)   bands (ev):

   -46.2273 -22.4850 -22.4790 -22.4680  -7.1383  -6.1754  -6.1500  -5.0309
    -5.0268  -5.0186  -4.9118  -4.8719   4.1980   6.8706   6.9054   7.1656
     8.8075   8.8701   9.1890   9.3032   9.4109   9.5715  12.4977  12.7258
    12.7735  14.5755

          k = 0.0500 0.0500 0.2500 (  5093 PWs)   bands (ev):

   -46.2269 -22.4963 -22.4843 -22.4674  -6.9953  -6.1203  -6.0991  -5.0461
    -5.0375  -5.0177  -4.9682  -4.8656   3.8304   6.8590   7.0347   7.1599
     8.5044   8.5749   9.1306   9.2297   9.4596   9.6415  12.5013  13.1982
    13.2214  14.5750

          k = 0.0500 0.0500 0.3500 (  5090 PWs)   bands (ev):

   -46.2266 -22.5133 -22.4837 -22.4667  -6.8452  -6.0610  -6.0472  -5.0708
    -5.0468  -5.0221  -5.0168  -4.8612   3.5454   6.4686   7.2085   7.3093
     8.1679   8.2351   9.0635   9.3201   9.5533  10.0036  12.5032  13.6315
    13.6518  14.3251

          k = 0.0500 0.0500 0.4500 (  5073 PWs)   bands (ev):

   -46.2264 -22.5239 -22.4833 -22.4664  -6.7481  -6.0259  -6.0103  -5.1014
    -5.0521  -5.0441  -5.0162  -4.8598   3.3993   6.1517   7.3827   7.5528
     7.8907   7.9147   9.0194   9.3763   9.5982  10.4447  12.5005  13.5956
    13.8892  13.9139

          k = 0.0500 0.1500 0.1500 (  5079 PWs)   bands (ev):

   -46.2271 -22.4957 -22.4786 -22.4676  -7.0522  -6.1478  -6.1232  -5.0384
    -5.0298  -5.0251  -4.9072  -4.8878   3.9806   6.8231   6.9479   7.3350
     8.4961   8.7079   9.0690   9.3066   9.3540   9.5743  12.7206  12.8166
    13.0199  14.7965

          k = 0.0500 0.1500 0.2500 (  5077 PWs)   bands (ev):

   -46.2267 -22.4961 -22.4947 -22.4670  -6.9149  -6.1020  -6.0751  -5.0552
    -5.0377  -5.0248  -4.9364  -4.8819   3.6849   6.7756   7.0496   7.2651
     8.2027   8.4768   8.8792   9.2640   9.3531   9.7553  12.8083  13.2020
    13.3916  14.8671

          k = 0.0500 0.1500 0.3500 (  5080 PWs)   bands (ev):

   -46.2264 -22.5129 -22.4943 -22.4663  -6.7744  -6.0550  -6.0219  -5.0759
    -5.0443  -5.0244  -4.9660  -4.8772   3.4390   6.4613   7.1241   7.3278
     7.9173   8.2433   8.8596   9.2945   9.3409  10.0342  12.8039  13.6324
    13.7721  14.4850

          k = 0.0500 0.1500 0.4500 (  5079 PWs)   bands (ev):

   -46.2262 -22.5233 -22.4939 -22.4659  -6.6864  -6.0221  -5.9883  -5.0930
    -5.0506  -5.0241  -4.9767  -4.8783   3.3079   6.1592   7.2295   7.4721
     7.7704   7.9527   8.9368   9.2985   9.3505  10.2538  12.7914  13.8872
    13.9919  14.0189

          k = 0.0500 0.2500 0.2500 (  5076 PWs)   bands (ev):

   -46.2264 -22.5122 -22.4950 -22.4663  -6.7876  -6.0758  -6.0229  -5.0601
    -5.0406  -5.0311  -4.9095  -4.8987   3.4662   6.6988   7.0403   7.2026
     7.9910   8.1399   8.6873   9.0802   9.5601   9.8584  13.1772  13.2813
    13.6812  14.9564

          k = 0.0500 0.2500 0.3500 (  5080 PWs)   bands (ev):

   -46.2261 -22.5123 -22.5112 -22.4657  -6.6739  -6.0372  -5.9623  -5.0691
    -5.0439  -5.0331  -4.9218  -4.8788   3.2710   6.4560   6.9053   7.2705
     7.7751   8.0916   8.5103   9.0088   9.6538   9.9131  13.2503  13.6290
    13.9782  14.7441

          k = 0.0500 0.2500 0.4500 (  5084 PWs)   bands (ev):

   -46.2258 -22.5225 -22.5110 -22.4653  -6.6109  -6.0009  -5.9240  -5.0781
    -5.0490  -5.0351  -4.9156  -4.8760   3.1609   6.1688   6.9559   7.2263
     7.7567   8.0413   8.4300   9.0328   9.6278   9.9498  13.2431  13.8828
    14.1777  14.5785

          k = 0.0500 0.3500 0.3500 (  5079 PWs)   bands (ev):

   -46.2257 -22.5285 -22.5112 -22.4650  -6.6000  -5.9771  -5.9018  -5.0664
    -5.0475  -5.0345  -4.9426  -4.8243   3.1097   6.3819   6.5492   7.3131
     7.6579   7.9553   8.4301   8.8084   9.6184   9.9588  13.6033  13.6927
    14.2008  14.9947

          k = 0.0500 0.3500 0.4500 (  5079 PWs)   bands (ev):

   -46.2255 -22.5280 -22.5217 -22.4646  -6.5724  -5.9251  -5.8544  -5.0692
    -5.0480  -5.0399  -4.9517  -4.7911   3.0163   6.1515   6.5024   7.2890
     7.5810   8.1005   8.2834   8.7447   9.3973  10.0837  13.6741  13.8765
    14.3659  15.1054

          k = 0.0500 0.4500 0.4500 (  5100 PWs)   bands (ev):

   -46.2253 -22.5385 -22.5212 -22.4642  -6.5654  -5.8514  -5.8095  -5.0695
    -5.0466  -5.0412  -4.9750  -4.7421   2.9284   6.0332   6.3304   7.3685
     7.4166   8.1744   8.3022   8.5706   9.0904  10.2532  13.8702  13.9357
    14.5024  15.3713

          k = 0.1500 0.1500 0.1500 (  5095 PWs)   bands (ev):

   -46.2269 -22.4953 -22.4783 -22.4781  -6.9707  -6.1256  -6.0992  -5.0434
    -5.0418  -5.0226  -4.8972  -4.8944   3.8295   6.8240   6.8338   7.4638
     8.3225   8.3565   9.1773   9.3089   9.3833   9.4448  12.9597  13.0159
    13.0216  15.3294

          k = 0.1500 0.1500 0.2500 (  5084 PWs)   bands (ev):

   -46.2265 -22.4956 -22.4943 -22.4776  -6.8379  -6.0916  -6.0549  -5.0619
    -5.0410  -5.0180  -4.9146  -4.8818   3.6019   6.7475   6.8386   7.3108
     8.0190   8.1558   8.9943   9.3211   9.4442   9.6288  12.9844  13.3392
    13.3830  15.1655

          k = 0.1500 0.1500 0.3500 (  5082 PWs)   bands (ev):

   -46.2262 -22.5124 -22.4939 -22.4769  -6.7052  -6.0582  -6.0036  -5.0767
    -5.0348  -5.0091  -4.9380  -4.8769   3.3972   6.4642   6.8366   7.1927
     7.7869   8.2188   8.6849   9.3939   9.4613   9.8774  12.9236  13.7045
    13.7525  14.6560

          k = 0.1500 0.1500 0.4500 (  5084 PWs)   bands (ev):

   -46.2260 -22.5228 -22.4935 -22.4765  -6.6244  -6.0374  -5.9674  -5.0831
    -5.0308  -4.9979  -4.9557  -4.8797   3.2832   6.1659   6.8277   7.2564
     7.6766   8.3058   8.4795   9.4369   9.4535  10.0045  12.8623  13.9358
    13.9903  14.4214

          k = 0.1500 0.2500 0.2500 (  5081 PWs)   bands (ev):

   -46.2262 -22.5118 -22.4946 -22.4769  -6.7086  -6.0670  -6.0295  -5.0636
    -5.0476  -5.0045  -4.8881  -4.8818   3.4565   6.6396   6.7496   7.1206
     7.6719   7.9086   9.0857   9.1900   9.5873   9.6820  13.2366  13.3749
    13.6246  14.9371

          k = 0.1500 0.2500 0.3500 (  5080 PWs)   bands (ev):

   -46.2258 -22.5119 -22.5108 -22.4762  -6.5953  -6.0523  -5.9749  -5.0672
    -5.0396  -4.9889  -4.8933  -4.8634   3.3121   6.4441   6.6743   6.8669
     7.4348   7.9364   8.8742   9.2386   9.6295   9.7492  13.2253  13.6554
    13.8976  14.8950

          k = 0.1500 0.2500 0.4500 (  5077 PWs)   bands (ev):

   -46.2256 -22.5220 -22.5106 -22.4758  -6.5332  -6.0398  -5.9334  -5.0673
    -5.0325  -4.9783  -4.8912  -4.8620   3.2252   6.1713   6.6070   6.8482
     7.3765   8.0299   8.6651   9.3170   9.5400   9.7944  13.1925  13.8848
    14.0994  14.9669

          k = 0.1500 0.3500 0.3500 (  5081 PWs)   bands (ev):

   -46.2255 -22.5281 -22.5108 -22.4756  -6.5140  -6.0096  -5.9442  -5.0614
    -5.0305  -4.9709  -4.9000  -4.8089   3.2134   6.3584   6.5034   6.6555
     7.0616   7.9016   8.8863   9.0983   9.4019   9.9581  13.5055  13.6944
    14.0885  15.1770

          k = 0.1500 0.3500 0.4500 (  5079 PWs)   bands (ev):

   -46.2253 -22.5276 -22.5212 -22.4751  -6.4857  -5.9836  -5.9000  -5.0580
    -5.0165  -4.9634  -4.9082  -4.7759   3.1502   6.1476   6.4495   6.5930
     6.9456   7.9497   8.7207   9.1131   9.2007  10.0785  13.5942  13.8455
    14.2470  15.4489

          k = 0.1500 0.4500 0.4500 (  5073 PWs)   bands (ev):

   -46.2251 -22.5380 -22.5207 -22.4747  -6.4782  -5.9193  -5.8811  -5.0540
    -4.9931  -4.9499  -4.9328  -4.7258   3.0964   6.0241   6.3164   6.6439
     6.7066   7.9596   8.5127   9.0335   9.0820  10.2470  13.8200  13.8753
    14.3708  15.7701

          k = 0.2500 0.2500 0.2500 (  5070 PWs)   bands (ev):

   -46.2258 -22.5111 -22.4941 -22.4938  -6.5870  -6.0544  -6.0294  -5.0522
    -5.0512  -4.9733  -4.8617  -4.8567   3.4217   6.4819   6.4978   7.0419
     7.3836   7.4069   9.2230   9.4661   9.4797   9.6900  13.2686  13.5939
    13.5947  14.9415

          k = 0.2500 0.2500 0.3500 (  5072 PWs)   bands (ev):

   -46.2255 -22.5111 -22.5101 -22.4932  -6.4806  -6.0619  -5.9898  -5.0494
    -5.0345  -4.9354  -4.8445  -4.8375   3.3654   6.2996   6.3761   6.6298
     7.1916   7.3592   8.9340   9.5202   9.5627   9.8064  13.2875  13.7128
    13.8775  15.1503

          k = 0.2500 0.2500 0.4500 (  5073 PWs)   bands (ev):

   -46.2253 -22.5213 -22.5099 -22.4928  -6.4270  -6.0694  -5.9480  -5.0460
    -5.0233  -4.8949  -4.8504  -4.8270   3.3222   6.1622   6.1898   6.4987
     7.1542   7.4025   8.6747   9.5092   9.5825   9.8628  13.3271  13.8673
    14.0814  15.4413

          k = 0.2500 0.3500 0.3500 (  5057 PWs)   bands (ev):

   -46.2252 -22.5274 -22.5101 -22.4925  -6.3794  -6.0497  -6.0041  -5.0376
    -5.0171  -4.8902  -4.8250  -4.7796   3.3917   6.1172   6.1817   6.4325
     6.7625   7.2525   8.4888   9.6127   9.6634   9.9681  13.4730  13.7950
    14.0178  15.4861

          k = 0.2500 0.3500 0.4500 (  5063 PWs)   bands (ev):

   -46.2250 -22.5269 -22.5205 -22.4921  -6.3481  -6.0580  -5.9633  -5.0319
    -5.0020  -4.8525  -4.8225  -4.7459   3.3969   6.0092   6.1224   6.1846
     6.6517   7.2628   8.1185   9.6456   9.6571  10.0797  13.6305  13.8685
    14.1733  15.8548

          k = 0.2500 0.4500 0.4500 (  5070 PWs)   bands (ev):

   -46.2248 -22.5373 -22.5200 -22.4917  -6.3358  -6.0083  -5.9738  -5.0263
    -4.9838  -4.8248  -4.8098  -4.6947   3.4277   5.9535   6.0310   6.0783
     6.3795   7.2521   7.6686   9.6484   9.6908  10.2377  13.8478  13.9064
    14.2827  16.1987

          k = 0.3500 0.3500 0.3500 (  5055 PWs)   bands (ev):

   -46.2248 -22.5266 -22.5095 -22.5093  -6.2703  -6.0672  -6.0459  -5.0115
    -5.0087  -4.8152  -4.7530  -4.7451   3.5790   5.8397   5.8602   6.3210
     6.7036   6.7154   7.8300   9.8898   9.9190  10.0245  13.6318  13.9950
    13.9952  15.8711

          k = 0.3500 0.3500 0.4500 (  5056 PWs)   bands (ev):

   -46.2246 -22.5262 -22.5198 -22.5090  -6.2376  -6.0912  -6.0181  -5.0058
    -4.9938  -4.7595  -4.7356  -4.7061   3.6933   5.6646   5.7897   6.0927
     6.5720   6.7047   7.3363   9.9398  10.0059  10.1253  13.8219  13.9902
    14.1664  16.2697

          k = 0.3500 0.4500 0.4500 (  5051 PWs)   bands (ev):

   -46.2244 -22.5366 -22.5193 -22.5085  -6.1937  -6.0811  -6.0498  -4.9984
    -4.9808  -4.7137  -4.6968  -4.6563   3.8999   5.5701   5.6143   5.9613
     6.3659   6.6519   6.7393  10.0445  10.0817  10.2291  14.0065  14.0638
    14.2399  16.6481

          k = 0.4500 0.4500 0.4500 (  5034 PWs)   bands (ev):

   -46.2242 -22.5362 -22.5189 -22.5189  -6.1313  -6.0991  -6.0880  -4.9818
    -4.9788  -4.6481  -4.6327  -4.6281   4.3945   5.3709   5.3877   5.8537
     5.9521   6.3630   6.3886  10.2155  10.2244  10.2556  14.1704  14.2195
    14.2201  17.0147

          k =-0.0500 0.1500 0.0500 (  5074 PWs)   bands (ev):

   -46.2273 -22.4961 -22.4680 -22.4680  -7.1354  -6.1773  -6.1493  -5.0282
    -5.0259  -5.0221  -4.9099  -4.8743   4.1965   6.8677   6.8919   7.1683
     8.8025   8.8433   9.1948   9.2510   9.5368   9.5417  12.3975  12.8066
    12.8108  14.5266

          k =-0.0500 0.2500 0.0500 (  5093 PWs)   bands (ev):

   -46.2269 -22.5134 -22.4674 -22.4673  -6.9868  -6.1299  -6.0935  -5.0445
    -5.0359  -5.0213  -4.9670  -4.8680   3.8259   6.8504   7.0137   7.1472
     8.4725   8.5297   9.1408   9.2455   9.5649   9.6538  12.4004  13.2606
    13.2709  14.5275

          k =-0.0500 0.3500 0.0500 (  5090 PWs)   bands (ev):

   -46.2266 -22.5306 -22.4667 -22.4667  -6.8297  -6.0849  -6.0307  -5.0709
    -5.0448  -5.0207  -5.0203  -4.8639   3.5375   6.4535   7.1707   7.2763
     8.1501   8.1927   9.0747   9.4167   9.6103  10.0294  12.4022  13.6828
    13.6947  14.3404

          k =-0.0500 0.4500 0.0500 (  5073 PWs)   bands (ev):

   -46.2264 -22.5411 -22.4663 -22.4663  -6.7270  -6.0594  -5.9872  -5.1034
    -5.0496  -5.0425  -5.0198  -4.8625   3.3892   6.1313   7.3158   7.4809
     7.8995   7.9173   9.0326   9.4962   9.6434  10.4716  12.4005  13.6075
    13.9348  13.9463

          k = 0.1500 0.0500 0.1500 (  5079 PWs)   bands (ev):

   -46.2271 -22.4847 -22.4787 -22.4785  -7.0557  -6.1513  -6.1176  -5.0407
    -5.0274  -5.0245  -4.9093  -4.8862   3.9825   6.8218   6.9636   7.3302
     8.5360   8.6437   9.1447   9.2643   9.3357   9.5856  12.7481  12.7970
    12.9783  14.8446

          k =-0.0500 0.2500 0.1500 (  5077 PWs)   bands (ev):

   -46.2267 -22.5129 -22.4780 -22.4670  -6.9095  -6.1047  -6.0749  -5.0549
    -5.0351  -5.0279  -4.9351  -4.8840   3.6820   6.7645   7.0367   7.2634
     8.1767   8.4639   8.8725   9.3214   9.3714   9.7654  12.7250  13.2672
    13.4086  14.8500

          k = 0.2500 0.0500 0.1500 (  5077 PWs)   bands (ev):

   -46.2267 -22.4958 -22.4840 -22.4780  -6.9196  -6.1083  -6.0648  -5.0558
    -5.0352  -5.0248  -4.9382  -4.8823   3.6870   6.7803   7.0531   7.2632
     8.2010   8.4418   8.8974   9.2876   9.3838   9.7347  12.7692  13.2181
    13.3729  14.8997

          k =-0.0500 0.3500 0.1500 (  5080 PWs)   bands (ev):

   -46.2264 -22.5301 -22.4773 -22.4663  -6.7626  -6.0585  -6.0238  -5.0765
    -5.0410  -5.0278  -4.9653  -4.8796   3.4329   6.4405   7.0929   7.3152
     7.9019   8.2140   8.8913   9.3186   9.4009  10.0581  12.7193  13.6883
    13.7872  14.5063

          k = 0.3500 0.0500 0.1500 (  5080 PWs)   bands (ev):

   -46.2264 -22.5129 -22.4833 -22.4773  -6.7812  -6.0565  -6.0132  -5.0755
    -5.0412  -5.0244  -4.9700  -4.8777   3.4410   6.4648   7.1107   7.3374
     7.9078   8.2574   8.8040   9.3170   9.4076  10.0244  12.7615  13.6456
    13.7569  14.5024

          k =-0.0500 0.4500 0.1500 (  5079 PWs)   bands (ev):

   -46.2262 -22.5406 -22.4769 -22.4659  -6.6700  -6.0244  -5.9934  -5.0950
    -5.0466  -5.0276  -4.9763  -4.8807   3.2996   6.1334   7.1695   7.4591
     7.7539   7.9533   8.9805   9.2958   9.4327  10.2859  12.7067  13.9391
    13.9840  14.0549

          k = 0.4500 0.0500 0.1500 (  5079 PWs)   bands (ev):

   -46.2262 -22.5233 -22.4830 -22.4769  -6.6951  -6.0143  -5.9862  -5.0927
    -5.0466  -5.0240  -4.9825  -4.8785   3.3098   6.1600   7.2142   7.4686
     7.7795   7.9727   8.8577   9.2991   9.4456  10.2600  12.7444  13.9065
    13.9880  14.0126

          k = 0.2500 0.0500 0.2500 (  5076 PWs)   bands (ev):

   -46.2264 -22.4954 -22.4948 -22.4833  -6.8015  -6.0787  -6.0078  -5.0595
    -5.0386  -5.0299  -4.9086  -4.9041   3.4714   6.7231   7.0241   7.2211
     7.9898   8.0737   8.7655   9.0818   9.5910   9.8173  13.1643  13.2569
    13.6616  14.9920

          k =-0.0500 0.3500 0.2500 (  5080 PWs)   bands (ev):

   -46.2261 -22.5293 -22.4943 -22.4657  -6.6685  -6.0305  -5.9709  -5.0695
    -5.0426  -5.0346  -4.9221  -4.8794   3.2678   6.4284   6.9162   7.2504
     7.7833   8.0824   8.4969   9.0620   9.6345   9.9437  13.1819  13.6875
    13.9789  14.7621

          k = 0.3500 0.0500 0.2500 (  5080 PWs)   bands (ev):

   -46.2261 -22.5121 -22.4944 -22.4826  -6.6932  -6.0283  -5.9513  -5.0677
    -5.0412  -5.0324  -4.9229  -4.8853   3.2759   6.4676   6.8993   7.2703
     7.7651   8.0591   8.5268   9.0666   9.6607   9.9123  13.1926  13.6431
    13.9609  14.7623

          k =-0.0500 0.4500 0.2500 (  5084 PWs)   bands (ev):

   -46.2258 -22.5398 -22.4939 -22.4653  -6.6025  -5.9774  -5.9499  -5.0797
    -5.0451  -5.0384  -4.9172  -4.8757   3.1556   6.1343   6.9590   7.2040
     7.7777   8.0048   8.4406   9.0945   9.5985   9.9975  13.1732  13.9397
    14.1696  14.6106

          k = 0.4500 0.0500 0.2500 (  5084 PWs)   bands (ev):

   -46.2258 -22.5225 -22.4939 -22.4822  -6.6343  -5.9778  -5.9216  -5.0772
    -5.0449  -5.0351  -4.9165  -4.8841   3.1655   6.1709   6.9629   7.1996
     7.7769   8.0475   8.3730   9.1134   9.6113   9.9862  13.1821  13.9037
    14.1567  14.5904

          k = 0.3500 0.0500 0.3500 (  5079 PWs)   bands (ev):

   -46.2257 -22.5114 -22.5111 -22.4820  -6.6310  -5.9608  -5.8867  -5.0641
    -5.0456  -5.0326  -4.9431  -4.8338   3.1171   6.4358   6.5214   7.3046
     7.6032   7.9583   8.4859   8.8180   9.6148   9.9806  13.5899  13.6687
    14.1831  14.9986

          k =-0.0500 0.4500 0.3500 (  5079 PWs)   bands (ev):

   -46.2255 -22.5390 -22.5108 -22.4646  -6.5702  -5.9056  -5.8736  -5.0701
    -5.0465  -5.0410  -4.9526  -4.7909   3.0141   6.1159   6.5316   7.2654
     7.6157   8.0568   8.2885   8.7786   9.3931  10.0952  13.6105  13.9376
    14.3603  15.1331

          k = 0.4500 0.0500 0.3500 (  5079 PWs)   bands (ev):

   -46.2255 -22.5217 -22.5108 -22.4816  -6.6065  -5.8923  -5.8507  -5.0672
    -5.0448  -5.0391  -4.9529  -4.8017   3.0230   6.1560   6.5287   7.2440
     7.5570   8.1029   8.3038   8.7845   9.3982  10.1185  13.6217  13.8990
    14.3422  15.1143

          k = 0.4500 0.0500 0.4500 (  5100 PWs)   bands (ev):

   -46.2253 -22.5212 -22.5212 -22.4812  -6.6031  -5.8167  -5.8041  -5.0669
    -5.0434  -5.0400  -4.9769  -4.7537   2.9363   6.0504   6.3555   7.3230
     7.3588   8.2228   8.3396   8.5596   9.1085  10.2849  13.8883  13.9011
    14.4748  15.3501

          k =-0.1500 0.2500 0.1500 (  5084 PWs)   bands (ev):

   -46.2265 -22.5125 -22.4777 -22.4774  -6.8313  -6.0822  -6.0686  -5.0618
    -5.0421  -5.0179  -4.9119  -4.8840   3.5987   6.7424   6.8194   7.3139
     8.0152   8.1664   8.9344   9.3834   9.4528   9.6324  12.9391  13.3793
    13.4009  15.1713

          k =-0.1500 0.3500 0.1500 (  5082 PWs)   bands (ev):

   -46.2262 -22.5296 -22.4770 -22.4768  -6.6906  -6.0368  -6.0350  -5.0778
    -5.0370  -5.0077  -4.9347  -4.8794   3.3907   6.4430   6.8010   7.2000
     7.8048   8.2111   8.6580   9.4264   9.4807   9.8988  12.8783  13.7531
    13.7585  14.6659

          k =-0.1500 0.4500 0.1500 (  5084 PWs)   bands (ev):

   -46.2260 -22.5401 -22.4765 -22.4764  -6.6040  -6.0164  -6.0024  -5.0853
    -5.0336  -4.9952  -4.9519  -4.8826   3.2745   6.1392   6.7810   7.2627
     7.7060   8.2492   8.5148   9.4354   9.4987  10.0318  12.8180  13.9837
    13.9902  14.4363

          k = 0.2500 0.1500 0.2500 (  5081 PWs)   bands (ev):

   -46.2262 -22.4953 -22.4944 -22.4935  -6.7180  -6.0723  -6.0160  -5.0626
    -5.0471  -5.0040  -4.8867  -4.8856   3.4599   6.6494   6.7592   7.1161
     7.6615   7.9018   9.1284   9.1891   9.6186   9.6238  13.2421  13.3661
    13.6055  14.9401

          k =-0.1500 0.3500 0.2500 (  5080 PWs)   bands (ev):

   -46.2258 -22.5288 -22.4939 -22.4762  -6.5882  -6.0370  -5.9949  -5.0680
    -5.0409  -4.9867  -4.8929  -4.8645   3.3087   6.4202   6.6525   6.8760
     7.4741   7.9267   8.8149   9.3017   9.6189   9.7685  13.1835  13.6968
    13.8980  14.9016

          k = 0.3500 0.1500 0.2500 (  5080 PWs)   bands (ev):

   -46.2258 -22.5116 -22.4942 -22.4930  -6.6090  -6.0445  -5.9690  -5.0661
    -5.0396  -4.9863  -4.8924  -4.8693   3.3155   6.4531   6.6689   6.8615
     7.4489   7.9170   8.8693   9.2807   9.6004   9.7703  13.2016  13.6682
    13.8825  14.8977

          k =-0.1500 0.4500 0.2500 (  5077 PWs)   bands (ev):

   -46.2256 -22.5393 -22.4934 -22.4758  -6.5222  -6.0127  -5.9675  -5.0690
    -5.0348  -4.9727  -4.8943  -4.8615   3.2194   6.1386   6.5685   6.8683
     7.4310   8.0163   8.6115   9.3705   9.5371   9.8167  13.1481  13.9298
    14.0965  14.9841

          k = 0.4500 0.1500 0.2500 (  5077 PWs)   bands (ev):

   -46.2256 -22.5220 -22.4938 -22.4926  -6.5505  -6.0225  -5.9327  -5.0664
    -5.0330  -4.9728  -4.8916  -4.8697   3.2284   6.1730   6.5957   6.8506
     7.4004   8.0015   8.6647   9.3475   9.5119   9.8319  13.1657  13.9003
    14.0837  14.9704

          k = 0.3500 0.1500 0.3500 (  5081 PWs)   bands (ev):

   -46.2255 -22.5110 -22.5107 -22.4926  -6.5420  -5.9961  -5.9302  -5.0591
    -5.0304  -4.9682  -4.8978  -4.8185   3.2200   6.4318   6.4485   6.6520
     7.0545   7.8863   8.9125   9.1098   9.3791   9.9842  13.4986  13.6837
    14.0744  15.1754

          k =-0.1500 0.4500 0.3500 (  5079 PWs)   bands (ev):

   -46.2253 -22.5385 -22.5103 -22.4751  -6.4828  -5.9558  -5.9289  -5.0587
    -5.0184  -4.9575  -4.9122  -4.7755   3.1478   6.1099   6.4794   6.5701
     6.9808   7.9405   8.6909   9.1232   9.2251  10.0821  13.5517  13.8894
    14.2443  15.4624

          k = 0.4500 0.1500 0.3500 (  5079 PWs)   bands (ev):

   -46.2253 -22.5212 -22.5104 -22.4922  -6.5174  -5.9530  -5.8983  -5.0559
    -5.0177  -4.9569  -4.9080  -4.7867   3.1564   6.1527   6.4675   6.5718
     6.9521   7.9270   8.7301   9.1207   9.2078  10.1101  13.5637  13.8605
    14.2314  15.4514

          k = 0.4500 0.1500 0.4500 (  5073 PWs)   bands (ev):

   -46.2251 -22.5208 -22.5207 -22.4918  -6.5146  -5.8876  -5.8763  -5.0513
    -4.9941  -4.9451  -4.9306  -4.7380   3.1044   6.0426   6.3436   6.6224
     6.6816   7.9418   8.5323   9.0546   9.0736  10.2793  13.8265  13.8569
    14.3556  15.7646

          k =-0.2500 0.3500 0.2500 (  5072 PWs)   bands (ev):

   -46.2255 -22.5281 -22.4933 -22.4931  -6.4689  -6.0431  -6.0190  -5.0511
    -5.0344  -4.9351  -4.8466  -4.8337   3.3614   6.2789   6.3702   6.6266
     7.2637   7.3159   8.9084   9.5292   9.5863   9.7947  13.2706  13.7356
    13.8799  15.1521

          k =-0.2500 0.4500 0.2500 (  5073 PWs)   bands (ev):

   -46.2253 -22.5386 -22.4929 -22.4927  -6.4081  -6.0516  -5.9824  -5.0482
    -5.0238  -4.8931  -4.8545  -4.8216   3.3155   6.1431   6.1494   6.5241
     7.2250   7.3648   8.6500   9.5032   9.6203   9.8493  13.3035  13.8995
    14.0837  15.4499

          k = 0.3500 0.2500 0.3500 (  5057 PWs)   bands (ev):

   -46.2252 -22.5106 -22.5100 -22.5093  -6.3992  -6.0429  -5.9919  -5.0353
    -5.0186  -4.8876  -4.8203  -4.7884   3.3960   6.1295   6.1760   6.4303
     6.7759   7.2319   8.4952   9.6264   9.6350   9.9930  13.4724  13.7906
    14.0104  15.4849

          k =-0.2500 0.4500 0.3500 (  5063 PWs)   bands (ev):

   -46.2250 -22.5378 -22.5096 -22.4921  -6.3428  -6.0304  -5.9952  -5.0327
    -5.0022  -4.8501  -4.8248  -4.7449   3.3938   5.9687   6.1294   6.1967
     6.6832   7.2515   8.1160   9.6125   9.6940  10.0779  13.6066  13.8964
    14.1728  15.8578

          k = 0.4500 0.2500 0.3500 (  5063 PWs)   bands (ev):

   -46.2250 -22.5205 -22.5099 -22.5090  -6.3729  -6.0342  -5.9627  -5.0300
    -5.0037  -4.8463  -4.8196  -4.7562   3.4014   5.9972   6.1476   6.1654
     6.6784   7.2351   8.1250   9.6284   9.6640  10.1073  13.6196  13.8748
    14.1660  15.8535

          k = 0.4500 0.2500 0.4500 (  5070 PWs)   bands (ev):

   -46.2248 -22.5201 -22.5200 -22.5088  -6.3698  -5.9797  -5.9697  -5.0237
    -4.9860  -4.8163  -4.8068  -4.7078   3.4355   5.9790   6.0271   6.0538
     6.3939   7.2260   7.6825   9.6647   9.6660  10.2703  13.8506  13.8983
    14.2742  16.1940

          k =-0.3500 0.4500 0.3500 (  5056 PWs)   bands (ev):

   -46.2246 -22.5371 -22.5090 -22.5089  -6.2204  -6.0765  -6.0492  -5.0079
    -4.9920  -4.7653  -4.7350  -4.7004   3.6887   5.6455   5.8177   6.0751
     6.5852   6.7028   7.3349   9.9750   9.9821  10.1081  13.8102  14.0056
    14.1678  16.2702

          k = 0.4500 0.3500 0.4500 (  5051 PWs)   bands (ev):

   -46.2244 -22.5258 -22.5193 -22.5193  -6.2236  -6.0557  -6.0462  -4.9960
    -4.9832  -4.7043  -4.6935  -4.6692   3.9065   5.5725   5.5989   5.9676
     6.3874   6.6278   6.7447  10.0490  10.0531  10.2615  14.0099  14.0616
    14.2345  16.6464

     the Fermi energy is    10.4208 ev

!    total energy              =    -364.95748982 Ry
     Harris-Foulkes estimate   =    -364.95748982 Ry
     estimated scf accuracy    <          3.0E-09 Ry

     The total energy is the sum of the following terms:

     one-electron contribution =     -82.83352951 Ry
     hartree contribution      =      70.78695383 Ry
     xc contribution           =     -85.80187262 Ry
     ewald contribution        =    -267.11522132 Ry
     smearing contrib. (-TS)   =       0.00617981 Ry

     convergence has been achieved in   6 iterations

     Forces acting on atoms (cartesian axes, Ry/au):

     atom    1 type  1   force =     0.00000000    0.00752563    0.00000000
     atom    2 type  2   force =     0.00000000   -0.00206184    0.00000000
     atom    3 type  3   force =     0.00000000   -0.00040589    0.00000000
     atom    4 type  3   force =     0.00000000   -0.00465200    0.00000000
     atom    5 type  3   force =     0.00000000   -0.00040589    0.00000000

     Total force =     0.004687     Total SCF correction =     0.000015


     Computing stress (Cartesian axis) and pressure

          total   stress  (Ry/bohr**3)                   (kbar)     P=    1.33
  -0.00000799   0.00000000   0.00000000         -1.17      0.00      0.00
   0.00000000   0.00004308   0.00000000          0.00      6.34      0.00
   0.00000000   0.00000000  -0.00000799          0.00      0.00     -1.17


     number of scf cycles    =   2
     number of bfgs steps    =   1

     energy   old            =    -364.9574595536 Ry
     energy   new            =    -364.9574898154 Ry

     CASE: energy  _new < energy  _old

     new trust radius        =       0.0063755147 bohr
     new conv_thr            =            1.0E-10 Ry


ATOMIC_POSITIONS (crystal)
Pb       0.000000000   0.000000000   0.000000000    0   0   0
Ti       0.500000000   0.520000000   0.500000000    0   0   0
O        0.500000000   0.499951266   0.000000000
O        0.500000000  -0.001625025   0.500000000
O        0.000000000   0.499951266   0.500000000



     Writing output data file PbTiO3.save/
     NEW-OLD atomic charge density approx. for the potential

     Check: negative core charge=   -0.000006

     total cpu time spent up to now is      475.3 secs

     Self-consistent Calculation

     iteration #  1     ecut=    80.00 Ry     beta= 0.70
     Davidson diagonalization with overlap
     ethr =  1.00E-06,  avg # of iterations =  3.0

     Threshold (ethr) on eigenvalues was too large:
     Diagonalizing with lowered threshold

     Davidson diagonalization with overlap
     ethr =  1.80E-08,  avg # of iterations =  2.3

     total cpu time spent up to now is      516.0 secs

     total energy              =    -364.95751421 Ry
     Harris-Foulkes estimate   =    -364.95751922 Ry
     estimated scf accuracy    <       0.00000792 Ry

     iteration #  2     ecut=    80.00 Ry     beta= 0.70
     Davidson diagonalization with overlap
     ethr =  1.80E-08,  avg # of iterations =  3.2

     total cpu time spent up to now is      538.6 secs

     total energy              =    -364.95751341 Ry
     Harris-Foulkes estimate   =    -364.95751857 Ry
     estimated scf accuracy    <       0.00001071 Ry

     iteration #  3     ecut=    80.00 Ry     beta= 0.70
     Davidson diagonalization with overlap
     ethr =  1.80E-08,  avg # of iterations =  3.2

     total cpu time spent up to now is      560.5 secs

     total energy              =    -364.95751588 Ry
     Harris-Foulkes estimate   =    -364.95751733 Ry
     estimated scf accuracy    <       0.00000442 Ry

     iteration #  4     ecut=    80.00 Ry     beta= 0.70
     Davidson diagonalization with overlap
     ethr =  1.00E-08,  avg # of iterations =  2.8

     total cpu time spent up to now is      580.5 secs

     total energy              =    -364.95751652 Ry
     Harris-Foulkes estimate   =    -364.95751657 Ry
     estimated scf accuracy    <       0.00000009 Ry

     iteration #  5     ecut=    80.00 Ry     beta= 0.70
     Davidson diagonalization with overlap
     ethr =  1.97E-10,  avg # of iterations =  3.9

     total cpu time spent up to now is      605.7 secs

     total energy              =    -364.95751655 Ry
     Harris-Foulkes estimate   =    -364.95751660 Ry
     estimated scf accuracy    <       0.00000016 Ry

     iteration #  6     ecut=    80.00 Ry     beta= 0.70
     Davidson diagonalization with overlap
     ethr =  1.97E-10,  avg # of iterations =  2.9

     total cpu time spent up to now is      626.7 secs

     total energy              =    -364.95751658 Ry
     Harris-Foulkes estimate   =    -364.95751658 Ry
     estimated scf accuracy    <          3.1E-09 Ry

     iteration #  7     ecut=    80.00 Ry     beta= 0.70
     Davidson diagonalization with overlap
     ethr =  7.08E-12,  avg # of iterations =  3.3

     total cpu time spent up to now is      650.0 secs

     total energy              =    -364.95751658 Ry
     Harris-Foulkes estimate   =    -364.95751658 Ry
     estimated scf accuracy    <          2.2E-10 Ry

     iteration #  8     ecut=    80.00 Ry     beta= 0.70
     Davidson diagonalization with overlap
     ethr =  4.94E-13,  avg # of iterations =  2.9

     total cpu time spent up to now is      672.8 secs

     End of self-consistent calculation

          k = 0.0500 0.0500 0.0500 (  5047 PWs)   bands (ev):

   -46.2241 -22.4837 -22.4651 -22.4651  -7.2236  -6.2083  -6.1805  -5.0235
    -5.0199  -5.0195  -4.8797  -4.8765   4.4948   6.8257   6.8372   6.9760
     9.0415   9.0492   9.1950   9.4505   9.5398   9.5958  12.3983  12.5009
    12.5052  14.5291

          k = 0.0500 0.0500 0.1500 (  5074 PWs)   bands (ev):

   -46.2239 -22.4833 -22.4757 -22.4647  -7.1382  -6.1763  -6.1493  -5.0316
    -5.0273  -5.0191  -4.9124  -4.8724   4.1976   6.8708   6.9062   7.1660
     8.8039   8.8685   9.1888   9.3024   9.4078   9.5703  12.5045  12.7283
    12.7786  14.5819

          k = 0.0500 0.0500 0.2500 (  5093 PWs)   bands (ev):

   -46.2235 -22.4930 -22.4826 -22.4641  -6.9953  -6.1211  -6.0985  -5.0468
    -5.0380  -5.0182  -4.9688  -4.8660   3.8299   6.8597   7.0352   7.1602
     8.5029   8.5740   9.1300   9.2282   9.4559   9.6401  12.5081  13.2008
    13.2253  14.5815

          k = 0.0500 0.0500 0.3500 (  5090 PWs)   bands (ev):

   -46.2232 -22.5101 -22.4820 -22.4634  -6.8454  -6.0613  -6.0469  -5.0713
    -5.0474  -5.0227  -5.0173  -4.8617   3.5448   6.4694   7.2087   7.3098
     8.1676   8.2352   9.0629   9.3154   9.5512  10.0023  12.5102  13.6341
    13.6553  14.3249

          k = 0.0500 0.0500 0.4500 (  5073 PWs)   bands (ev):

   -46.2230 -22.5206 -22.4816 -22.4630  -6.7484  -6.0253  -6.0107  -5.1019
    -5.0528  -5.0446  -5.0167  -4.8602   3.3987   6.1526   7.3826   7.5534
     7.8908   7.9153   9.0188   9.3706   9.5964  10.4434  12.5074  13.5952
    13.8917  13.9180

          k = 0.0500 0.1500 0.1500 (  5079 PWs)   bands (ev):

   -46.2237 -22.4940 -22.4753 -22.4643  -7.0520  -6.1488  -6.1226  -5.0389
    -5.0305  -5.0257  -4.9077  -4.8884   3.9800   6.8233   6.9479   7.3359
     8.4934   8.7059   9.0670   9.3054   9.3534   9.5743  12.7232  12.8225
    13.0249  14.8005

          k = 0.0500 0.1500 0.2500 (  5077 PWs)   bands (ev):

   -46.2233 -22.4936 -22.4922 -22.4637  -6.9148  -6.1027  -6.0747  -5.0558
    -5.0384  -5.0253  -4.9370  -4.8823   3.6843   6.7758   7.0499   7.2658
     8.2014   8.4757   8.8785   9.2610   9.3520   9.7551  12.8143  13.2044
    13.3957  14.8718

          k = 0.0500 0.1500 0.3500 (  5080 PWs)   bands (ev):

   -46.2230 -22.5096 -22.4926 -22.4630  -6.7744  -6.0556  -6.0215  -5.0764
    -5.0450  -5.0249  -4.9664  -4.8777   3.4384   6.4619   7.1245   7.3281
     7.9169   8.2431   8.8583   9.2916   9.3393  10.0334  12.8100  13.6349
    13.7759  14.4849

          k = 0.0500 0.1500 0.4500 (  5079 PWs)   bands (ev):

   -46.2228 -22.5201 -22.4922 -22.4626  -6.6865  -6.0229  -5.9877  -5.0935
    -5.0513  -5.0246  -4.9771  -4.8787   3.3073   6.1600   7.2296   7.4726
     7.7704   7.9528   8.9349   9.2977   9.3472  10.2526  12.7975  13.8896
    13.9919  14.0227

          k = 0.0500 0.2500 0.2500 (  5076 PWs)   bands (ev):

   -46.2230 -22.5105 -22.4917 -22.4630  -6.7872  -6.0764  -6.0228  -5.0607
    -5.0412  -5.0316  -4.9100  -4.8992   3.4655   6.6979   7.0419   7.2025
     7.9899   8.1392   8.6859   9.0794   9.5585   9.8589  13.1800  13.2863
    13.6853  14.9584

          k = 0.0500 0.2500 0.3500 (  5080 PWs)   bands (ev):

   -46.2227 -22.5099 -22.5086 -22.4624  -6.6736  -6.0380  -5.9620  -5.0697
    -5.0446  -5.0337  -4.9223  -4.8792   3.2703   6.4562   6.9059   7.2704
     7.7746   8.0912   8.5104   9.0062   9.6525   9.9128  13.2556  13.6315
    13.9821  14.7445

          k = 0.0500 0.2500 0.4500 (  5084 PWs)   bands (ev):

   -46.2224 -22.5192 -22.5093 -22.4620  -6.6105  -6.0022  -5.9234  -5.0786
    -5.0497  -5.0356  -4.9161  -4.8763   3.1603   6.1696   6.9558   7.2264
     7.7560   8.0417   8.4303   9.0298   9.6270   9.9484  13.2484  13.8852
    14.1817  14.5786

          k = 0.0500 0.3500 0.3500 (  5079 PWs)   bands (ev):

   -46.2223 -22.5268 -22.5080 -22.4617  -6.5994  -5.9780  -5.9017  -5.0670
    -5.0481  -5.0351  -4.9431  -4.8246   3.1090   6.3803   6.5511   7.3128
     7.6581   7.9552   8.4293   8.8076   9.6171   9.9583  13.6059  13.6973
    14.2047  14.9956

          k = 0.0500 0.3500 0.4500 (  5079 PWs)   bands (ev):

   -46.2221 -22.5263 -22.5184 -22.4613  -6.5718  -5.9267  -5.8537  -5.0698
    -5.0487  -5.0404  -4.9523  -4.7915   3.0156   6.1522   6.5019   7.2893
     7.5806   8.1010   8.2839   8.7426   9.3962  10.0825  13.6790  13.8788
    14.3698  15.1064

          k = 0.0500 0.4500 0.4500 (  5100 PWs)   bands (ev):

   -46.2219 -22.5367 -22.5179 -22.4609  -6.5647  -5.8531  -5.8087  -5.0702
    -5.0473  -5.0417  -4.9755  -4.7424   2.9277   6.0332   6.3303   7.3688
     7.4172   8.1746   8.3022   8.5695   9.0890  10.2520  13.8725  13.9404
    14.5063  15.3742

          k = 0.1500 0.1500 0.1500 (  5095 PWs)   bands (ev):

   -46.2235 -22.4936 -22.4750 -22.4748  -6.9706  -6.1266  -6.0985  -5.0440
    -5.0423  -5.0232  -4.8978  -4.8948   3.8290   6.8239   6.8343   7.4645
     8.3203   8.3557   9.1718   9.3099   9.3827   9.4458  12.9623  13.0208
    13.0266  15.3325

          k = 0.1500 0.1500 0.2500 (  5084 PWs)   bands (ev):

   -46.2231 -22.4932 -22.4918 -22.4742  -6.8379  -6.0923  -6.0543  -5.0625
    -5.0415  -5.0186  -4.9152  -4.8823   3.6014   6.7477   6.8387   7.3112
     8.0183   8.1545   8.9935   9.3184   9.4434   9.6292  12.9892  13.3421
    13.3867  15.1651

          k = 0.1500 0.1500 0.3500 (  5082 PWs)   bands (ev):

   -46.2228 -22.5091 -22.4922 -22.4736  -6.7055  -6.0588  -6.0030  -5.0772
    -5.0354  -5.0097  -4.9386  -4.8773   3.3967   6.4649   6.8364   7.1929
     7.7867   8.2176   8.6843   9.3919   9.4604   9.8769  12.9283  13.7072
    13.7560  14.6559

          k = 0.1500 0.1500 0.4500 (  5084 PWs)   bands (ev):

   -46.2226 -22.5196 -22.4918 -22.4732  -6.6248  -6.0379  -5.9667  -5.0837
    -5.0313  -4.9985  -4.9563  -4.8802   3.2827   6.1668   6.8275   7.2566
     7.6767   8.3056   8.4778   9.4354   9.4527  10.0038  12.8666  13.9383
    13.9939  14.4215

          k = 0.1500 0.2500 0.2500 (  5081 PWs)   bands (ev):

   -46.2228 -22.5101 -22.4913 -22.4736  -6.7084  -6.0676  -6.0293  -5.0642
    -5.0482  -5.0051  -4.8888  -4.8822   3.4558   6.6390   6.7494   7.1216
     7.6714   7.9086   9.0813   9.1912   9.5859   9.6831  13.2393  13.3790
    13.6287  14.9372

          k = 0.1500 0.2500 0.3500 (  5080 PWs)   bands (ev):

   -46.2224 -22.5095 -22.5081 -22.4729  -6.5951  -6.0531  -5.9745  -5.0678
    -5.0401  -4.9895  -4.8939  -4.8638   3.3116   6.4442   6.6743   6.8674
     7.4341   7.9367   8.8743   9.2359   9.6287   9.7489  13.2294  13.6579
    13.9014  14.8954

          k = 0.1500 0.2500 0.4500 (  5077 PWs)   bands (ev):

   -46.2222 -22.5188 -22.5089 -22.4725  -6.5331  -6.0409  -5.9328  -5.0679
    -5.0331  -4.9791  -4.8917  -4.8624   3.2246   6.1721   6.6070   6.8480
     7.3757   8.0301   8.6654   9.3147   9.5395   9.7934  13.1967  13.8871
    14.1031  14.9672

          k = 0.1500 0.3500 0.3500 (  5081 PWs)   bands (ev):

   -46.2221 -22.5264 -22.5075 -22.4722  -6.5134  -6.0105  -5.9441  -5.0620
    -5.0310  -4.9715  -4.9006  -4.8093   3.2127   6.3563   6.5055   6.6555
     7.0616   7.9023   8.8842   9.0981   9.4018   9.9572  13.5081  13.6981
    14.0921  15.1776

          k = 0.1500 0.3500 0.4500 (  5079 PWs)   bands (ev):

   -46.2219 -22.5259 -22.5179 -22.4718  -6.4851  -5.9850  -5.8993  -5.0586
[...]
    -5.0570  -4.9801  -4.8703  -4.8506   3.4071   6.4285   6.4929   6.9931
     7.4492   7.4874   9.1109   9.4939   9.4996   9.6565  13.2915  13.6886
    13.7159  14.9699

          k = 0.2500 0.2500 0.3500 (  5072 PWs)   bands (ev):

   -46.1263 -22.4613 -22.4127 -22.3952  -6.5011  -6.0751  -5.9770  -5.0553
    -5.0408  -4.9432  -4.8522  -4.8321   3.3544   6.2853   6.3514   6.6503
     7.1746   7.4712   8.9330   9.4644   9.5462   9.7883  13.3530  13.7671
    13.9693  15.1749

          k = 0.2500 0.2500 0.4500 (  5073 PWs)   bands (ev):

   -46.1261 -22.4608 -22.4231 -22.3947  -6.4523  -6.0791  -5.9387  -5.0515
    -5.0292  -4.9063  -4.8509  -4.8259   3.3136   6.1749   6.2273   6.4677
     7.1137   7.5196   8.6927   9.4834   9.5185   9.8470  13.4330  13.8795
    14.1661  15.4416

          k = 0.2500 0.3500 0.3500 (  5057 PWs)   bands (ev):

   -46.1260 -22.4784 -22.4119 -22.3945  -6.3783  -6.0793  -5.9968  -5.0457
    -5.0226  -4.9023  -4.8295  -4.7723   3.3762   6.0558   6.1758   6.4455
     6.8219   7.3441   8.4843   9.5472   9.6826   9.9172  13.5164  13.8968
    14.0975  15.5079

          k = 0.2500 0.3500 0.4500 (  5063 PWs)   bands (ev):

   -46.1258 -22.4780 -22.4223 -22.3940  -6.3461  -6.0943  -5.9547  -5.0396
    -5.0070  -4.8717  -4.8218  -4.7383   3.3868   6.0194   6.0605   6.2337
     6.6648   7.3705   8.1193   9.5729   9.6732  10.0304  13.7282  13.9086
    14.2477  15.8635

          k = 0.2500 0.4500 0.4500 (  5070 PWs)   bands (ev):

   -46.1255 -22.4885 -22.4218 -22.3936  -6.3190  -6.0591  -5.9652  -5.0347
    -4.9889  -4.8495  -4.8060  -4.6854   3.4168   5.8600   6.0489   6.1181
     6.4500   7.3443   7.6663   9.5717   9.7154  10.1839  13.8970  14.0131
    14.3398  16.2031

          k = 0.3500 0.3500 0.3500 (  5055 PWs)   bands (ev):

   -46.1256 -22.4777 -22.4113 -22.4112  -6.2901  -6.0859  -6.0338  -5.0205
    -5.0128  -4.8287  -4.7593  -4.7376   3.5656   5.7988   5.8666   6.2951
     6.7776   6.8299   7.8390   9.8229   9.9025  10.0111  13.6768  14.0673
    14.0814  15.8875

          k = 0.3500 0.3500 0.4500 (  5056 PWs)   bands (ev):

   -46.1254 -22.4772 -22.4216 -22.4108  -6.2692  -6.0976  -6.0101  -5.0121
    -5.0003  -4.7746  -4.7367  -4.7038   3.6835   5.6693   5.7537   6.1119
     6.6172   6.8170   7.3466   9.8780   9.9793  10.1240  13.8881  14.0413
    14.2392  16.2778

          k = 0.3500 0.4500 0.4500 (  5051 PWs)   bands (ev):

   -46.1252 -22.4878 -22.4211 -22.4104  -6.1885  -6.1233  -6.0418  -5.0069
    -4.9855  -4.7430  -4.6917  -4.6481   3.8849   5.5349   5.6337   5.9632
     6.4268   6.7135   6.7972   9.9789  10.1031  10.1755  14.0621  14.1423
    14.3037  16.6483

          k = 0.4500 0.4500 0.4500 (  5034 PWs)   bands (ev):

   -46.1250 -22.4873 -22.4207 -22.4207  -6.1761  -6.0939  -6.0801  -4.9909
    -4.9826  -4.6786  -4.6271  -4.6219   4.3743   5.3549   5.3989   5.8660
     5.9623   6.4210   6.5043  10.1593  10.1714  10.2766  14.2264  14.2821
    14.2868  17.0102

          k =-0.0500 0.1500 0.0500 (  5074 PWs)   bands (ev):

   -46.1281 -22.4469 -22.3701 -22.3701  -7.1355  -6.1987  -6.1188  -5.0333
    -5.0328  -5.0307  -4.9053  -4.8846   4.1786   6.8595   6.8673   7.1903
     8.6625   8.6897   9.1477   9.1544   9.5310   9.5372  12.4737  13.0821
    13.0964  14.6531

          k =-0.0500 0.2500 0.0500 (  5093 PWs)   bands (ev):

   -46.1278 -22.4644 -22.3695 -22.3694  -6.9791  -6.1582  -6.0615  -5.0494
    -5.0408  -5.0317  -4.9639  -4.8788   3.7976   6.8396   6.9592   7.1284
     8.3894   8.4196   9.1045   9.2177   9.5807   9.6611  12.4763  13.4877
    13.5098  14.6560

          k =-0.0500 0.3500 0.0500 (  5090 PWs)   bands (ev):

   -46.1274 -22.4817 -22.3688 -22.3688  -6.8110  -6.1231  -5.9966  -5.0750
    -5.0494  -5.0308  -5.0205  -4.8753   3.4966   6.4633   7.0637   7.1890
     8.1434   8.1580   9.0421   9.4259   9.6310  10.0422  12.4778  13.8746
    13.9015  14.3349

          k =-0.0500 0.4500 0.0500 (  5073 PWs)   bands (ev):

   -46.1272 -22.4925 -22.3684 -22.3684  -6.6988  -6.1065  -5.9513  -5.1069
    -5.0542  -5.0446  -5.0302  -4.8743   3.3388   6.1522   7.1401   7.2988
     7.9724   7.9925   9.0017   9.5119   9.6650  10.4937  12.4760  13.5984
    14.1074  14.1383

          k = 0.1500 0.0500 0.1500 (  5079 PWs)   bands (ev):

   -46.1279 -22.4352 -22.3808 -22.3806  -7.0661  -6.1673  -6.0912  -5.0505
    -5.0330  -5.0297  -4.9177  -4.8812   3.9723   6.8169   6.9920   7.3210
     8.4690   8.5214   9.0432   9.1847   9.3611   9.5889  12.9286  12.9741
    13.0552  15.1092

          k =-0.0500 0.2500 0.1500 (  5077 PWs)   bands (ev):

   -46.1275 -22.4639 -22.3800 -22.3691  -6.9038  -6.1313  -6.0480  -5.0604
    -5.0414  -5.0367  -4.9314  -4.8932   3.6575   6.7321   6.9928   7.2706
     8.1178   8.3844   8.8490   9.2747   9.3698   9.7944  12.7897  13.4972
    13.5659  14.9784

          k = 0.2500 0.0500 0.1500 (  5077 PWs)   bands (ev):

   -46.1275 -22.4346 -22.3977 -22.3800  -6.9366  -6.1210  -6.0418  -5.0647
    -5.0404  -5.0296  -4.9434  -4.8810   3.6778   6.7909   7.0615   7.2648
     8.1808   8.3392   8.8988   9.1941   9.3873   9.7094  12.9527  13.3063
    13.4320  15.1431

          k =-0.0500 0.3500 0.1500 (  5080 PWs)   bands (ev):

   -46.1272 -22.4813 -22.3793 -22.3684  -6.7454  -6.0954  -5.9961  -5.0822
    -5.0455  -5.0380  -4.9627  -4.8894   3.3978   6.4216   7.0096   7.2704
     7.9031   8.1730   8.9072   9.2641   9.4249  10.0929  12.7823  13.8797
    13.9281  14.5125

          k = 0.3500 0.0500 0.1500 (  5080 PWs)   bands (ev):

   -46.1272 -22.4339 -22.4147 -22.3794  -6.8055  -6.0639  -5.9955  -5.0831
    -5.0435  -5.0291  -4.9769  -4.8783   3.4313   6.5069   7.0971   7.3649
     7.8952   8.2843   8.6603   9.2596   9.4185   9.9929  12.9420  13.7071
    13.8039  14.5098

          k =-0.0500 0.4500 0.1500 (  5079 PWs)   bands (ev):

   -46.1270 -22.4919 -22.3789 -22.3680  -6.6432  -6.0733  -5.9619  -5.1008
    -5.0506  -5.0379  -4.9744  -4.8912   3.2566   6.1312   7.0250   7.3725
     7.7729   8.0125   8.9996   9.2412   9.4620  10.3254  12.7691  13.9921
    14.1208  14.1710

          k = 0.4500 0.0500 0.1500 (  5079 PWs)   bands (ev):

   -46.1270 -22.4335 -22.4252 -22.3790  -6.7244  -6.0159  -5.9741  -5.0983
    -5.0457  -5.0289  -4.9934  -4.8795   3.2989   6.2262   7.2026   7.4714
     7.8070   8.0280   8.6479   9.2602   9.4517  10.2434  12.9150  13.9627
    14.0051  14.0481

          k = 0.2500 0.0500 0.2500 (  5076 PWs)   bands (ev):

   -46.1272 -22.4339 -22.3972 -22.3968  -6.8280  -6.0850  -5.9876  -5.0674
    -5.0439  -5.0323  -4.9149  -4.9048   3.4643   6.7435   7.0065   7.2520
     7.9517   7.9728   8.8627   9.0402   9.5875   9.7756  13.2405  13.3561
    13.7013  15.1050

          k =-0.0500 0.3500 0.2500 (  5080 PWs)   bands (ev):

   -46.1269 -22.4804 -22.3962 -22.3678  -6.6516  -6.0599  -5.9614  -5.0760
    -5.0509  -5.0408  -4.9283  -4.8757   3.2424   6.3670   6.9554   7.1939
     7.7942   8.0454   8.4883   9.0865   9.5482   9.9974  13.2259  13.8912
    14.0586  14.7903

          k = 0.3500 0.0500 0.2500 (  5080 PWs)   bands (ev):

   -46.1269 -22.4333 -22.4139 -22.3963  -6.7297  -6.0269  -5.9355  -5.0746
    -5.0444  -5.0325  -4.9245  -4.8956   3.2697   6.5119   6.8970   7.2777
     7.7312   7.9953   8.5646   9.0892   9.6428   9.8990  13.2704  13.7083
    13.9798  14.7938

          k =-0.0500 0.4500 0.2500 (  5084 PWs)   bands (ev):

   -46.1266 -22.4911 -22.3958 -22.3673  -6.5763  -6.0208  -5.9352  -5.0865
    -5.0501  -5.0472  -4.9269  -4.8693   3.1252   6.0947   6.9435   7.1804
     7.7453   7.9920   8.4726   9.1255   9.5224  10.0466  13.2152  14.1275
    14.2295  14.6526

          k = 0.4500 0.0500 0.2500 (  5084 PWs)   bands (ev):

   -46.1266 -22.4328 -22.4244 -22.3959  -6.6765  -5.9703  -5.9108  -5.0824
    -5.0425  -5.0380  -4.9183  -4.8982   3.1591   6.2351   6.9752   7.1713
     7.7752   8.0652   8.2959   9.1622   9.5807  10.0008  13.2558  13.9696
    14.1636  14.5977

          k = 0.3500 0.0500 0.3500 (  5079 PWs)   bands (ev):

   -46.1265 -22.4326 -22.4132 -22.4130  -6.6770  -5.9537  -5.8741  -5.0704
    -5.0478  -5.0285  -4.9422  -4.8514   3.1133   6.4556   6.5900   7.2767
     7.5144   7.9590   8.5496   8.8470   9.6019   9.9918  13.6285  13.7440
    14.1694  15.0383

          k =-0.0500 0.4500 0.3500 (  5079 PWs)   bands (ev):

   -46.1263 -22.4902 -22.4126 -22.3667  -6.5433  -5.9596  -5.8619  -5.0770
    -5.0562  -5.0447  -4.9592  -4.7826   2.9974   6.0491   6.6187   7.2151
     7.6486   7.9471   8.3298   8.8186   9.3724  10.0712  13.6263  14.1289
    14.4026  15.2006

          k = 0.4500 0.0500 0.3500 (  5079 PWs)   bands (ev):

   -46.1263 -22.4322 -22.4235 -22.4127  -6.6561  -5.8831  -5.8417  -5.0722
    -5.0438  -5.0342  -4.9540  -4.8214   3.0200   6.2049   6.5989   7.1833
     7.4824   8.1163   8.3391   8.8328   9.4033  10.1359  13.6739  13.9654
    14.3017  15.1376

          k = 0.4500 0.0500 0.4500 (  5100 PWs)   bands (ev):

   -46.1261 -22.4317 -22.4230 -22.4230  -6.6546  -5.8098  -5.7973  -5.0708
    -5.0378  -5.0318  -4.9829  -4.7754   2.9349   6.0883   6.4642   7.2432
     7.2716   8.2512   8.3825   8.5959   9.1430  10.3056  13.9497  13.9707
    14.3903  15.3640

          k =-0.1500 0.2500 0.1500 (  5084 PWs)   bands (ev):

   -46.1273 -22.4634 -22.3797 -22.3795  -6.8287  -6.1111  -6.0412  -5.0680
    -5.0505  -5.0239  -4.9072  -4.8930   3.5767   6.7244   6.7588   7.3226
     8.0109   8.1393   8.8152   9.3556   9.4625   9.6856  12.9896  13.5213
    13.5775  15.1712

          k =-0.1500 0.3500 0.1500 (  5082 PWs)   bands (ev):

   -46.1270 -22.4808 -22.3790 -22.3788  -6.6759  -6.0757  -6.0085  -5.0849
    -5.0461  -5.0122  -4.9298  -4.8891   3.3592   6.4237   6.7010   7.2150
     7.8614   8.1409   8.6291   9.3760   9.5082   9.9462  12.9302  13.8759
    13.9147  14.6726

          k =-0.1500 0.4500 0.1500 (  5084 PWs)   bands (ev):

   -46.1268 -22.4914 -22.3785 -22.3784  -6.5795  -6.0528  -5.9876  -5.0932
    -5.0433  -4.9983  -4.9467  -4.8933   3.2358   6.1345   6.6571   7.2630
     7.7961   8.1330   8.5580   9.3750   9.5357  10.0770  12.8751  14.1022
    14.1271  14.4447

          k = 0.2500 0.1500 0.2500 (  5081 PWs)   bands (ev):

   -46.1270 -22.4447 -22.3968 -22.3964  -6.7399  -6.0836  -5.9959  -5.0686
    -5.0532  -5.0093  -4.8966  -4.8809   3.4504   6.6374   6.7546   7.1090
     7.6536   7.9272   9.0626   9.2109   9.6035   9.6083  13.3132  13.4644
    13.6656  14.9647

          k =-0.1500 0.3500 0.2500 (  5080 PWs)   bands (ev):

   -46.1266 -22.4800 -22.3958 -22.3782  -6.5758  -6.0591  -5.9925  -5.0759
    -5.0490  -4.9916  -4.8986  -4.8607   3.2843   6.3572   6.5963   6.9229
     7.5297   7.9403   8.7197   9.3340   9.5744   9.7978  13.2180  13.8504
    13.9884  14.9230

          k = 0.3500 0.1500 0.2500 (  5080 PWs)   bands (ev):

   -46.1266 -22.4440 -22.4135 -22.3959  -6.6413  -6.0473  -5.9540  -5.0711
    -5.0454  -4.9892  -4.8935  -4.8766   3.3078   6.4763   6.6586   6.8631
     7.4490   7.9352   8.8850   9.2497   9.5558   9.7790  13.2858  13.7191
    13.9336  14.9190

          k =-0.1500 0.4500 0.2500 (  5077 PWs)   bands (ev):

   -46.1264 -22.4906 -22.3954 -22.3778  -6.4996  -6.0265  -5.9836  -5.0777
    -5.0438  -4.9743  -4.9051  -4.8545   3.1897   6.1025   6.4876   6.9128
     7.5093   8.0044   8.5497   9.3945   9.5226   9.8170  13.1943  14.0758
    14.1773  15.0004

          k = 0.4500 0.1500 0.2500 (  5077 PWs)   bands (ev):

   -46.1264 -22.4435 -22.4239 -22.3954  -6.5887  -6.0192  -5.9226  -5.0711
    -5.0384  -4.9715  -4.8928  -4.8812   3.2212   6.2329   6.5898   6.8360
     7.4025   8.0080   8.6994   9.3102   9.4613   9.8489  13.2607  13.9306
    14.1352  14.9670

          k = 0.3500 0.1500 0.3500 (  5081 PWs)   bands (ev):

   -46.1263 -22.4433 -22.4128 -22.4126  -6.5860  -5.9913  -5.9178  -5.0631
    -5.0363  -4.9671  -4.8933  -4.8359   3.2150   6.4388   6.4708   6.6499
     7.0738   7.9072   8.9325   9.1086   9.3360   9.9948  13.5378  13.7580
    14.0991  15.2015

          k =-0.1500 0.4500 0.3500 (  5079 PWs)   bands (ev):

   -46.1261 -22.4898 -22.4122 -22.3772  -6.4598  -5.9978  -5.9273  -5.0672
    -5.0271  -4.9601  -4.9219  -4.7668   3.1301   6.0337   6.5328   6.5635
     7.0240   7.9717   8.6402   9.1135   9.2463  10.0372  13.5832  14.0410
    14.3017  15.4890

          k = 0.4500 0.1500 0.3500 (  5079 PWs)   bands (ev):

   -46.1261 -22.4429 -22.4231 -22.4122  -6.5658  -5.9447  -5.8897  -5.0596
    -5.0236  -4.9519  -4.9043  -4.8068   3.1527   6.1982   6.4903   6.5585
     6.9588   7.9475   8.7687   9.0978   9.1823  10.1262  13.6248  13.9118
    14.2435  15.4591

          k = 0.4500 0.1500 0.4500 (  5073 PWs)   bands (ev):

   -46.1259 -22.4424 -22.4226 -22.4226  -6.5655  -5.8806  -5.8691  -5.0548
    -5.0011  -4.9381  -4.9246  -4.7608   3.1026   6.0786   6.4295   6.5873
     6.6664   7.9664   8.5683   9.0438   9.0565  10.3001  13.8843  13.9226
    14.3404  15.7718

          k =-0.2500 0.3500 0.2500 (  5072 PWs)   bands (ev):

   -46.1263 -22.4792 -22.3953 -22.3950  -6.4636  -6.0581  -6.0234  -5.0596
    -5.0409  -4.9430  -4.8538  -4.8262   3.3401   6.2067   6.3422   6.6459
     7.3576   7.3631   8.8475   9.5227   9.6070   9.7434  13.2979  13.8646
    13.9694  15.1765

          k =-0.2500 0.4500 0.2500 (  5073 PWs)   bands (ev):

   -46.1261 -22.4898 -22.3948 -22.3946  -6.3904  -6.0339  -6.0321  -5.0575
    -5.0309  -4.9038  -4.8587  -4.8133   3.2889   6.0729   6.1211   6.5649
     7.3351   7.3801   8.6126   9.4830   9.6387   9.7970  13.3496  14.0194
    14.1697  15.4628

          k = 0.3500 0.2500 0.3500 (  5057 PWs)   bands (ev):

   -46.1260 -22.4606 -22.4121 -22.4119  -6.4370  -6.0443  -5.9796  -5.0392
    -5.0267  -4.8909  -4.8135  -4.8030   3.3881   6.1213   6.1400   6.4373
     6.8752   7.2781   8.5065   9.5751   9.6014  10.0007  13.5127  13.8643
    14.0760  15.5077

          k =-0.2500 0.4500 0.3500 (  5063 PWs)   bands (ev):

   -46.1258 -22.4890 -22.4115 -22.3940  -6.3266  -6.0515  -6.0113  -5.0416
    -5.0081  -4.8688  -4.8241  -4.7361   3.3747   5.8869   6.1176   6.2489
     6.7516   7.3267   8.1177   9.5438   9.7179  10.0225  13.6494  14.0139
    14.2425  15.8718

          k = 0.4500 0.2500 0.3500 (  5063 PWs)   bands (ev):

   -46.1258 -22.4601 -22.4223 -22.4115  -6.4177  -6.0287  -5.9544  -5.0338
    -5.0119  -4.8457  -4.8142  -4.7737   3.3957   5.9896   6.1301   6.1903
     6.7560   7.2807   8.1420   9.5939   9.6168  10.1213  13.6867  13.9188
    14.2220  15.8637

          k = 0.4500 0.2500 0.4500 (  5070 PWs)   bands (ev):

   -46.1255 -22.4597 -22.4219 -22.4219  -6.4193  -5.9727  -5.9621  -5.0274
    -4.9948  -4.8107  -4.7998  -4.7321   3.4325   5.9702   6.0022   6.0750
     6.5064   7.2569   7.7080   9.6277   9.6301  10.2912  13.9082  13.9626
    14.3068  16.1960

          k =-0.3500 0.4500 0.3500 (  5056 PWs)   bands (ev):

   -46.1254 -22.4883 -22.4109 -22.4107  -6.2128  -6.0946  -6.0645  -5.0172
    -4.9963  -4.7921  -4.7295  -4.6927   3.6696   5.6067   5.8447   6.0567
     6.6303   6.8197   7.3522   9.9129   9.9955  10.0530  13.8577  14.0998
    14.2385  16.2781

          k = 0.4500 0.3500 0.4500 (  5051 PWs)   bands (ev):

   -46.1252 -22.4768 -22.4212 -22.4211  -6.2708  -6.0493  -6.0384  -4.9997
    -4.9922  -4.7113  -4.6870  -4.6845   3.8994   5.5633   5.5794   5.9896
     6.5029   6.6664   6.7697   9.9979  10.0055  10.2823  14.0681  14.1251
    14.2906  16.6462

     the Fermi energy is    10.4074 ev

!    total energy              =    -364.95808531 Ry
     Harris-Foulkes estimate   =    -364.95808531 Ry
     estimated scf accuracy    <          5.5E-12 Ry

     The total energy is the sum of the following terms:

     one-electron contribution =     -83.17517246 Ry
     hartree contribution      =      70.98478475 Ry
     xc contribution           =     -85.82094827 Ry
     ewald contribution        =    -266.95291089 Ry
     smearing contrib. (-TS)   =       0.00616157 Ry

     convergence has been achieved in   9 iterations

     Forces acting on atoms (cartesian axes, Ry/au):

     atom    1 type  1   force =     0.00000000    0.01338609    0.00000000
     atom    2 type  2   force =     0.00000000   -0.01388866    0.00000000
     atom    3 type  3   force =     0.00000000   -0.00012927    0.00000000
     atom    4 type  3   force =     0.00000000    0.00076111    0.00000000
     atom    5 type  3   force =     0.00000000   -0.00012927    0.00000000

     Total force =     0.000783     Total SCF correction =     0.000001


     Computing stress (Cartesian axis) and pressure

          total   stress  (Ry/bohr**3)                   (kbar)     P=   10.53
   0.00000113   0.00000000   0.00000000          0.17      0.00      0.00
   0.00000000   0.00021256   0.00000000          0.00     31.27      0.00
   0.00000000   0.00000000   0.00000113          0.00      0.00      0.17


     bfgs converged in  11 scf cycles and  10 bfgs steps
     (criteria: energy <  1.0E-04 Ry, force <  1.0E-03 Ry/Bohr)

     End of BFGS Geometry Optimization

     Final energy   =    -364.9580853076 Ry
Begin final coordinates

ATOMIC_POSITIONS (crystal)
Pb       0.000000000   0.000000000   0.000000000    0   0   0
Ti       0.500000000   0.520000000   0.500000000    0   0   0
O        0.500000000   0.478793973   0.000000000
O        0.500000000  -0.019042111   0.500000000
O        0.000000000   0.478793973   0.500000000
End final coordinates



     Writing output data file PbTiO3.save/
 
     init_run     :      9.54s CPU     10.21s WALL (       1 calls)
     electrons    :   2173.32s CPU   2279.97s WALL (      11 calls)
     update_pot   :      2.88s CPU      3.03s WALL (      10 calls)
     forces       :     28.00s CPU     33.85s WALL (      11 calls)
     stress       :    121.91s CPU    137.28s WALL (      11 calls)

     Called by init_run:
     wfcinit      :      7.16s CPU      7.25s WALL (       1 calls)
     potinit      :      0.23s CPU      0.26s WALL (       1 calls)
     hinit0       :      1.31s CPU      1.34s WALL (       1 calls)

     Called by electrons:
     c_bands      :   1710.34s CPU   1722.82s WALL (      99 calls)
     sum_band     :    369.65s CPU    414.10s WALL (      99 calls)
     v_of_rho     :     21.70s CPU     22.85s WALL (     106 calls)
     newd         :     79.91s CPU    132.84s WALL (     106 calls)
     mix_rho      :      1.29s CPU      1.43s WALL (      99 calls)

     Called by c_bands:
     init_us_2    :     49.69s CPU     49.95s WALL (   16575 calls)
     cegterg      :   1572.25s CPU   1584.06s WALL (    7425 calls)

     Called by sum_band:
     sum_band:bec :      0.13s CPU      0.13s WALL (    7425 calls)
     addusdens    :     88.20s CPU    131.36s WALL (      99 calls)

     Called by *egterg:
     h_psi        :   1319.21s CPU   1322.02s WALL (   31869 calls)
     s_psi        :     41.71s CPU     41.88s WALL (   31869 calls)
     g_psi        :     15.16s CPU     15.22s WALL (   24369 calls)
     cdiaghg      :     42.98s CPU     50.41s WALL (   30744 calls)

     Called by h_psi:
     h_psi:pot    :   1313.89s CPU   1316.49s WALL (   31869 calls)
     h_psi:calbec :     41.45s CPU     41.54s WALL (   31869 calls)
     vloc_psi     :   1230.36s CPU   1232.79s WALL (   31869 calls)
     add_vuspsi   :     41.91s CPU     42.00s WALL (   31869 calls)

     General routines
     calbec       :     63.40s CPU     63.55s WALL (   43419 calls)
     fft          :      5.55s CPU      5.58s WALL (    1645 calls)
     ffts         :      0.22s CPU      0.22s WALL (     205 calls)
     fftw         :   1326.66s CPU   1329.32s WALL ( 1236590 calls)
     interpolate  :      0.59s CPU      0.64s WALL (     106 calls)
 
     Parallel routines
 
     PWSCF        :  39m 4.51s CPU  41m21.13s WALL

 
   This run was terminated on:  13:33:47  13May2020            

=------------------------------------------------------------------------------=
   JOB DONE.
=------------------------------------------------------------------------------=
