
     Program PWSCF v.6.4.1 starts on 12May2020 at 23:27:25 

     This program is part of the open-source Quantum ESPRESSO suite
     for quantum simulation of materials; please cite
         "P. Giannozzi et al., J. Phys.:Condens. Matter 21 395502 (2009);
         "P. Giannozzi et al., J. Phys.:Condens. Matter 29 465901 (2017);
          URL http://www.quantum-espresso.org", 
     in publications or presentations arising from this work. More details at
     http://www.quantum-espresso.org/quote

     Parallel version (MPI & OpenMP), running on       1 processor cores
     Number of MPI processes:                 1
     Threads/MPI process:                     1

     MPI processes distributed on     1 nodes
     Reading input from PTO_7.49_10_0.4.pw.in
Warning: card  &CELL ignored
Warning: card   CELL_DYNAMICS = 'BFGS', ignored
Warning: card  / ignored

     Current dimensions of program PWSCF are:
     Max number of different atomic species (ntypx) = 10
     Max number of k-points (npk) =  40000
     Max angular momentum in pseudopotentials (lmaxx) =  3
     Message from routine read_upf::
     Pseudo file Pb.pbe-dn-rrkjus_psl.0.2.2.UPF has been fixed on the fly.
To avoid this message in the future, permanently fix 
 your pseudo files following these instructions: 
https://gitlab.com/QEF/q-e/blob/master/upftools/how_to_fix_upf.md
     Message from routine read_upf::
     Pseudo file O.pbe-n-rrkjus_psl.0.1.UPF has been fixed on the fly.
To avoid this message in the future, permanently fix 
 your pseudo files following these instructions: 
https://gitlab.com/QEF/q-e/blob/master/upftools/how_to_fix_upf.md
               file Pb.pbe-dn-rrkjus_psl.0.2.2.UPF: wavefunction(s)  6S renormalized

     Subspace diagonalization in iterative solution of the eigenvalue problem:
     a serial algorithm will be used

 
     G-vector sticks info
     --------------------
     sticks:   dense  smooth     PW     G-vecs:    dense   smooth      PW
     Sum        3569    1433    421               160467    40651    6235
 


     bravais-lattice index     =            1
     lattice parameter (alat)  =       7.4900  a.u.
     unit-cell volume          =     420.1897 (a.u.)^3
     number of atoms/cell      =            5
     number of atomic types    =            3
     number of electrons       =        44.00
     number of Kohn-Sham states=           26
     kinetic-energy cutoff     =      80.0000  Ry
     charge density cutoff     =     800.0000  Ry
     convergence threshold     =      1.0E-08
     mixing beta               =       0.7000
     number of iterations used =            8  plain     mixing
     Exchange-correlation      = PBE ( 1  4  3  4 0 0)
     nstep                     =           50


     celldm(1)=   7.490000  celldm(2)=   0.000000  celldm(3)=   0.000000
     celldm(4)=   0.000000  celldm(5)=   0.000000  celldm(6)=   0.000000

     crystal axes: (cart. coord. in units of alat)
               a(1) = (   1.000000   0.000000   0.000000 )  
               a(2) = (   0.000000   1.000000   0.000000 )  
               a(3) = (   0.000000   0.000000   1.000000 )  

     reciprocal axes: (cart. coord. in units 2 pi/alat)
               b(1) = (  1.000000  0.000000  0.000000 )  
               b(2) = (  0.000000  1.000000  0.000000 )  
               b(3) = (  0.000000  0.000000  1.000000 )  


     PseudoPot. # 1 for Pb read from file:
     ./Pb.pbe-dn-rrkjus_psl.0.2.2.UPF
     MD5 check sum: 7afc420059c37d6888fc09c0f121e83f
     Pseudo is Ultrasoft + core correction, Zval = 14.0
     Generated using "atomic" code by A. Dal Corso v.5.0.2 svn rev. 9415
     Using radial grid of 1281 points,  6 beta functions with: 
                l(1) =   0
                l(2) =   0
                l(3) =   1
                l(4) =   1
                l(5) =   2
                l(6) =   2
     Q(r) pseudized with 0 coefficients 


     PseudoPot. # 2 for Ti read from file:
     ./Ti.pbe-sp-van_ak.UPF
     MD5 check sum: 8e4df49b7f0d34bbd5052bf3f5ea0213
     Pseudo is Ultrasoft, Zval = 12.0
     Generated by new atomic code, or converted to UPF format
     Using radial grid of  851 points,  6 beta functions with: 
                l(1) =   0
                l(2) =   0
                l(3) =   1
                l(4) =   1
                l(5) =   2
                l(6) =   2
     Q(r) pseudized with  8 coefficients,  rinner =    1.000   1.000   1.000
                                                       1.000   1.000

     PseudoPot. # 3 for O  read from file:
     ./O.pbe-n-rrkjus_psl.0.1.UPF
     MD5 check sum: e057bbcf3229fb5d8c36c0c92f9568b4
     Pseudo is Ultrasoft + core correction, Zval =  6.0
     Generated using "atomic" code by A. Dal Corso v.5.0.2 svn rev. 9415
     Using radial grid of 1095 points,  4 beta functions with: 
                l(1) =   0
                l(2) =   0
                l(3) =   1
                l(4) =   1
     Q(r) pseudized with 0 coefficients 


     atomic species   valence    mass     pseudopotential
        Pb            14.00   207.20000     Pb( 1.00)
        Ti            12.00    47.87000     Ti( 1.00)
        O              6.00    16.00000     O ( 1.00)

      8 Sym. Ops. (no inversion) found



   Cartesian axes

     site n.     atom                  positions (alat units)
         1           Pb  tau(   1) = (   0.0000000   0.0000000   0.0000000  )
         2           Ti  tau(   2) = (   0.5000000   0.4000000   0.5000000  )
         3           O   tau(   3) = (   0.5000000   0.5000000   0.0000000  )
         4           O   tau(   4) = (   0.5000000   0.0000000   0.5000000  )
         5           O   tau(   5) = (   0.0000000   0.5000000   0.5000000  )

     number of k points=    75  Marzari-Vanderbilt smearing, width (Ry)=  0.0250
                       cart. coord. in units 2pi/alat
        k(    1) = (   0.0500000   0.0500000   0.0500000), wk =   0.0160000
        k(    2) = (   0.0500000   0.0500000   0.1500000), wk =   0.0320000
        k(    3) = (   0.0500000   0.0500000   0.2500000), wk =   0.0320000
        k(    4) = (   0.0500000   0.0500000   0.3500000), wk =   0.0320000
        k(    5) = (   0.0500000   0.0500000   0.4500000), wk =   0.0320000
        k(    6) = (   0.0500000   0.1500000   0.1500000), wk =   0.0320000
        k(    7) = (   0.0500000   0.1500000   0.2500000), wk =   0.0320000
        k(    8) = (   0.0500000   0.1500000   0.3500000), wk =   0.0320000
        k(    9) = (   0.0500000   0.1500000   0.4500000), wk =   0.0320000
        k(   10) = (   0.0500000   0.2500000   0.2500000), wk =   0.0320000
        k(   11) = (   0.0500000   0.2500000   0.3500000), wk =   0.0320000
        k(   12) = (   0.0500000   0.2500000   0.4500000), wk =   0.0320000
        k(   13) = (   0.0500000   0.3500000   0.3500000), wk =   0.0320000
        k(   14) = (   0.0500000   0.3500000   0.4500000), wk =   0.0320000
        k(   15) = (   0.0500000   0.4500000   0.4500000), wk =   0.0320000
        k(   16) = (   0.1500000   0.1500000   0.1500000), wk =   0.0160000
        k(   17) = (   0.1500000   0.1500000   0.2500000), wk =   0.0320000
        k(   18) = (   0.1500000   0.1500000   0.3500000), wk =   0.0320000
        k(   19) = (   0.1500000   0.1500000   0.4500000), wk =   0.0320000
        k(   20) = (   0.1500000   0.2500000   0.2500000), wk =   0.0320000
        k(   21) = (   0.1500000   0.2500000   0.3500000), wk =   0.0320000
        k(   22) = (   0.1500000   0.2500000   0.4500000), wk =   0.0320000
        k(   23) = (   0.1500000   0.3500000   0.3500000), wk =   0.0320000
        k(   24) = (   0.1500000   0.3500000   0.4500000), wk =   0.0320000
        k(   25) = (   0.1500000   0.4500000   0.4500000), wk =   0.0320000
        k(   26) = (   0.2500000   0.2500000   0.2500000), wk =   0.0160000
        k(   27) = (   0.2500000   0.2500000   0.3500000), wk =   0.0320000
        k(   28) = (   0.2500000   0.2500000   0.4500000), wk =   0.0320000
        k(   29) = (   0.2500000   0.3500000   0.3500000), wk =   0.0320000
        k(   30) = (   0.2500000   0.3500000   0.4500000), wk =   0.0320000
        k(   31) = (   0.2500000   0.4500000   0.4500000), wk =   0.0320000
        k(   32) = (   0.3500000   0.3500000   0.3500000), wk =   0.0160000
        k(   33) = (   0.3500000   0.3500000   0.4500000), wk =   0.0320000
        k(   34) = (   0.3500000   0.4500000   0.4500000), wk =   0.0320000
        k(   35) = (   0.4500000   0.4500000   0.4500000), wk =   0.0160000
        k(   36) = (  -0.0500000   0.1500000   0.0500000), wk =   0.0160000
        k(   37) = (  -0.0500000   0.2500000   0.0500000), wk =   0.0160000
        k(   38) = (  -0.0500000   0.3500000   0.0500000), wk =   0.0160000
        k(   39) = (  -0.0500000   0.4500000   0.0500000), wk =   0.0160000
        k(   40) = (   0.1500000   0.0500000   0.1500000), wk =   0.0160000
        k(   41) = (  -0.0500000   0.2500000   0.1500000), wk =   0.0320000
        k(   42) = (   0.2500000   0.0500000   0.1500000), wk =   0.0320000
        k(   43) = (  -0.0500000   0.3500000   0.1500000), wk =   0.0320000
        k(   44) = (   0.3500000   0.0500000   0.1500000), wk =   0.0320000
        k(   45) = (  -0.0500000   0.4500000   0.1500000), wk =   0.0320000
        k(   46) = (   0.4500000   0.0500000   0.1500000), wk =   0.0320000
        k(   47) = (   0.2500000   0.0500000   0.2500000), wk =   0.0160000
        k(   48) = (  -0.0500000   0.3500000   0.2500000), wk =   0.0320000
        k(   49) = (   0.3500000   0.0500000   0.2500000), wk =   0.0320000
        k(   50) = (  -0.0500000   0.4500000   0.2500000), wk =   0.0320000
        k(   51) = (   0.4500000   0.0500000   0.2500000), wk =   0.0320000
        k(   52) = (   0.3500000   0.0500000   0.3500000), wk =   0.0160000
        k(   53) = (  -0.0500000   0.4500000   0.3500000), wk =   0.0320000
        k(   54) = (   0.4500000   0.0500000   0.3500000), wk =   0.0320000
        k(   55) = (   0.4500000   0.0500000   0.4500000), wk =   0.0160000
        k(   56) = (  -0.1500000   0.2500000   0.1500000), wk =   0.0160000
        k(   57) = (  -0.1500000   0.3500000   0.1500000), wk =   0.0160000
        k(   58) = (  -0.1500000   0.4500000   0.1500000), wk =   0.0160000
        k(   59) = (   0.2500000   0.1500000   0.2500000), wk =   0.0160000
        k(   60) = (  -0.1500000   0.3500000   0.2500000), wk =   0.0320000
        k(   61) = (   0.3500000   0.1500000   0.2500000), wk =   0.0320000
        k(   62) = (  -0.1500000   0.4500000   0.2500000), wk =   0.0320000
        k(   63) = (   0.4500000   0.1500000   0.2500000), wk =   0.0320000
        k(   64) = (   0.3500000   0.1500000   0.3500000), wk =   0.0160000
        k(   65) = (  -0.1500000   0.4500000   0.3500000), wk =   0.0320000
        k(   66) = (   0.4500000   0.1500000   0.3500000), wk =   0.0320000
        k(   67) = (   0.4500000   0.1500000   0.4500000), wk =   0.0160000
        k(   68) = (  -0.2500000   0.3500000   0.2500000), wk =   0.0160000
        k(   69) = (  -0.2500000   0.4500000   0.2500000), wk =   0.0160000
        k(   70) = (   0.3500000   0.2500000   0.3500000), wk =   0.0160000
        k(   71) = (  -0.2500000   0.4500000   0.3500000), wk =   0.0320000
        k(   72) = (   0.4500000   0.2500000   0.3500000), wk =   0.0320000
        k(   73) = (   0.4500000   0.2500000   0.4500000), wk =   0.0160000
        k(   74) = (  -0.3500000   0.4500000   0.3500000), wk =   0.0160000
        k(   75) = (   0.4500000   0.3500000   0.4500000), wk =   0.0160000

     Dense  grid:   160467 G-vectors     FFT dimensions: (  72,  72,  72)

     Smooth grid:    40651 G-vectors     FFT dimensions: (  45,  45,  45)

     Estimated max dynamical RAM per process >     759.22 MB

     Check: negative core charge=   -0.000006

     Initial potential from superposition of free atoms

     starting charge   42.99760, renormalised to   44.00000
     Starting wfcs are   31 randomized atomic wfcs

     total cpu time spent up to now is       11.2 secs

     Self-consistent Calculation

     iteration #  1     ecut=    80.00 Ry     beta= 0.70
     Davidson diagonalization with overlap
     ethr =  1.00E-02,  avg # of iterations =  2.1

     total cpu time spent up to now is       31.3 secs

     total energy              =    -364.39384000 Ry
     Harris-Foulkes estimate   =    -365.24575186 Ry
     estimated scf accuracy    <       1.07597634 Ry

     iteration #  2     ecut=    80.00 Ry     beta= 0.70
     Davidson diagonalization with overlap
     ethr =  2.45E-03,  avg # of iterations =  4.0

     total cpu time spent up to now is       58.3 secs

     total energy              =    -364.02633217 Ry
     Harris-Foulkes estimate   =    -365.43595615 Ry
     estimated scf accuracy    <       3.90176718 Ry

     iteration #  3     ecut=    80.00 Ry     beta= 0.70
     Davidson diagonalization with overlap
     ethr =  2.45E-03,  avg # of iterations =  4.2

     total cpu time spent up to now is       84.1 secs

     total energy              =    -364.86210401 Ry
     Harris-Foulkes estimate   =    -365.00022116 Ry
     estimated scf accuracy    <       0.37836595 Ry

     iteration #  4     ecut=    80.00 Ry     beta= 0.70
     Davidson diagonalization with overlap
     ethr =  8.60E-04,  avg # of iterations =  4.1

     total cpu time spent up to now is      104.6 secs

     total energy              =    -364.87535099 Ry
     Harris-Foulkes estimate   =    -364.89596059 Ry
     estimated scf accuracy    <       0.05878426 Ry

     iteration #  5     ecut=    80.00 Ry     beta= 0.70
     Davidson diagonalization with overlap
     ethr =  1.34E-04,  avg # of iterations =  4.7

     total cpu time spent up to now is      130.8 secs

     total energy              =    -364.89510679 Ry
     Harris-Foulkes estimate   =    -364.89626556 Ry
     estimated scf accuracy    <       0.00442801 Ry

     iteration #  6     ecut=    80.00 Ry     beta= 0.70
     Davidson diagonalization with overlap
     ethr =  1.01E-05,  avg # of iterations =  3.0

     total cpu time spent up to now is      150.7 secs

     total energy              =    -364.89535763 Ry
     Harris-Foulkes estimate   =    -364.89556428 Ry
     estimated scf accuracy    <       0.00054096 Ry

     iteration #  7     ecut=    80.00 Ry     beta= 0.70
     Davidson diagonalization with overlap
     ethr =  1.23E-06,  avg # of iterations =  4.5

     total cpu time spent up to now is      175.6 secs

     total energy              =    -364.89554674 Ry
     Harris-Foulkes estimate   =    -364.89556789 Ry
     estimated scf accuracy    <       0.00006632 Ry

     iteration #  8     ecut=    80.00 Ry     beta= 0.70
     Davidson diagonalization with overlap
     ethr =  1.51E-07,  avg # of iterations =  3.0

     total cpu time spent up to now is      196.1 secs

     total energy              =    -364.89555332 Ry
     Harris-Foulkes estimate   =    -364.89555900 Ry
     estimated scf accuracy    <       0.00001493 Ry

     iteration #  9     ecut=    80.00 Ry     beta= 0.70
     Davidson diagonalization with overlap
     ethr =  3.39E-08,  avg # of iterations =  3.0

     total cpu time spent up to now is      217.7 secs

     total energy              =    -364.89555680 Ry
     Harris-Foulkes estimate   =    -364.89555704 Ry
     estimated scf accuracy    <       0.00000105 Ry

     iteration # 10     ecut=    80.00 Ry     beta= 0.70
     Davidson diagonalization with overlap
     ethr =  2.38E-09,  avg # of iterations =  3.1

     total cpu time spent up to now is      241.7 secs

     total energy              =    -364.89555706 Ry
     Harris-Foulkes estimate   =    -364.89555710 Ry
     estimated scf accuracy    <       0.00000008 Ry

     iteration # 11     ecut=    80.00 Ry     beta= 0.70
     Davidson diagonalization with overlap
     ethr =  1.86E-10,  avg # of iterations =  2.9

     total cpu time spent up to now is      264.9 secs

     End of self-consistent calculation

          k = 0.0500 0.0500 0.0500 (  5047 PWs)   bands (ev):

   -45.5749 -22.4628 -21.7755 -21.7754  -7.2691  -6.2076  -5.9413  -5.1976
    -5.1226  -5.1223  -4.9825  -4.9027   4.2883   6.5724   6.6970   7.1992
     7.8033   7.8349   8.6113   9.1301   9.6305   9.7217  12.8918  14.4326
    14.5390  15.3209

          k = 0.0500 0.0500 0.1500 (  5074 PWs)   bands (ev):

   -45.5746 -22.4623 -21.7858 -21.7751  -7.2056  -6.1642  -5.9153  -5.2049
    -5.1309  -5.1221  -5.0070  -4.9129   3.9894   6.6345   6.9695   7.2810
     7.6476   7.8393   8.6826   9.1303   9.3924   9.7041  13.1682  14.1862
    14.5186  15.6229

          k = 0.0500 0.0500 0.2500 (  5093 PWs)   bands (ev):

   -45.5743 -22.4615 -21.8024 -21.7745  -7.1013  -6.0845  -5.8754  -5.2161
    -5.1461  -5.1216  -5.0593  -4.9231   3.6150   6.7879   7.0113   7.3457
     7.7378   7.8651   8.7240   9.0624   9.1324   9.6935  13.5634  14.1791
    14.4947  15.0250

          k = 0.0500 0.0500 0.3500 (  5090 PWs)   bands (ev):

   -45.5739 -22.4607 -21.8190 -21.7739  -6.9949  -5.9845  -5.8427  -5.2264
    -5.1723  -5.1212  -5.1154  -4.9320   3.3150   6.7788   7.0010   7.4472
     7.8428   8.0169   8.6020   8.8049   9.0390   9.9569  13.8603  13.9554
    14.4327  14.5771

          k = 0.0500 0.0500 0.4500 (  5073 PWs)   bands (ev):

   -45.5737 -22.4602 -21.8291 -21.7736  -6.9280  -5.8933  -5.8422  -5.2306
    -5.2111  -5.1385  -5.1207  -4.9385   3.1539   6.6257   7.1891   7.4359
     7.9580   8.1525   8.3745   8.6172   8.9961  10.3308  13.1949  14.1219
    14.5576  14.6953

          k = 0.0500 0.1500 0.1500 (  5079 PWs)   bands (ev):

   -45.5744 -22.4732 -21.7853 -21.7746  -7.0969  -6.1582  -5.8815  -5.2044
    -5.1444  -5.1288  -4.9975  -4.9399   3.7521   6.5429   6.7490   7.3258
     7.7045   7.8857   8.6694   9.1243   9.4794   9.7752  13.1630  14.3297
    14.6640  15.6353

          k = 0.0500 0.1500 0.2500 (  5077 PWs)   bands (ev):

   -45.5741 -22.4724 -21.8019 -21.7740  -6.9963  -6.0881  -5.8543  -5.2158
    -5.1634  -5.1286  -5.0239  -4.9370   3.4571   6.6635   6.8255   7.3072
     7.7345   7.9228   8.5515   9.1055   9.1835   9.8603  13.5427  14.3071
    14.6273  15.0368

          k = 0.0500 0.1500 0.3500 (  5080 PWs)   bands (ev):

   -45.5737 -22.4715 -21.8184 -21.7734  -6.8942  -6.0074  -5.8323  -5.2260
    -5.1859  -5.1285  -5.0416  -4.9447   3.2065   6.6701   6.8970   7.3103
     7.7358   8.0407   8.5093   8.8101   9.0584  10.0428  13.8506  14.0940
    14.5406  14.7335

          k = 0.0500 0.1500 0.4500 (  5079 PWs)   bands (ev):

   -45.5735 -22.4710 -21.8285 -21.7731  -6.8303  -5.9480  -5.8247  -5.2297
    -5.2066  -5.1285  -5.0427  -4.9583   3.0682   6.5687   7.0437   7.3168
     7.6894   8.1246   8.4725   8.7370   8.9013  10.1997  13.5799  14.0741
    14.7050  14.7557

          k = 0.0500 0.2500 0.2500 (  5076 PWs)   bands (ev):

   -45.5737 -22.4899 -21.8010 -21.7733  -6.8128  -6.1103  -5.8071  -5.2152
    -5.1806  -5.1358  -5.0088  -4.9384   3.2126   6.3816   6.6321   7.2210
     7.6456   7.9716   8.5045   9.1398   9.2884  10.0738  13.5022  14.4563
    14.8205  15.0840

          k = 0.0500 0.2500 0.3500 (  5080 PWs)   bands (ev):

   -45.5733 -22.4889 -21.8174 -21.7727  -6.7212  -6.0679  -5.7807  -5.2250
    -5.1882  -5.1372  -5.0127  -4.9147   3.0331   6.3825   6.7547   7.1431
     7.6223   8.0431   8.3577   8.8967   9.1477  10.0834  13.7915  14.3542
    14.7513  14.9933

          k = 0.0500 0.2500 0.4500 (  5084 PWs)   bands (ev):

   -45.5731 -22.4884 -21.8275 -21.7723  -6.6648  -6.0478  -5.7548  -5.2287
    -5.1977  -5.1384  -5.0031  -4.9109   2.9304   6.3574   6.8530   7.1698
     7.3703   8.2538   8.4289   8.6583   9.0150  10.0418  13.9642  14.2039
    14.8282  14.9662

          k = 0.0500 0.3500 0.3500 (  5079 PWs)   bands (ev):

   -45.5730 -22.5062 -21.8165 -21.7719  -6.5259  -6.1443  -5.7085  -5.2241
    -5.2004  -5.1383  -5.0427  -4.8434   2.8629   5.9903   6.6094   7.0752
     7.5972   7.9382   8.3990   8.9677   9.1193  10.1138  13.7249  14.5865
    15.0468  15.2634

          k = 0.0500 0.3500 0.4500 (  5079 PWs)   bands (ev):

   -45.5727 -22.5056 -21.8265 -21.7715  -6.4843  -6.1399  -5.6703  -5.2277
    -5.2011  -5.1402  -5.0476  -4.8056   2.7947   5.9732   6.6948   7.0066
     7.4544   8.0988   8.4451   8.7260   8.8809  10.0631  13.8634  14.7497
    14.9442  15.2273

          k = 0.0500 0.4500 0.4500 (  5100 PWs)   bands (ev):

   -45.5725 -22.5162 -21.8259 -21.7710  -6.3465  -6.2134  -5.6069  -5.2272
    -5.2160  -5.1362  -5.0787  -4.7462   2.7119   5.6957   6.5985   6.9640
     7.6368   7.9167   8.4932   8.6097   8.8169  10.1507  13.7892  14.8837
    15.2177  15.4065

          k = 0.1500 0.1500 0.1500 (  5095 PWs)   bands (ev):

   -45.5742 -22.4727 -21.7850 -21.7847  -7.0430  -6.1216  -5.8624  -5.2076
    -5.1521  -5.1307  -5.0027  -4.9373   3.6139   6.4020   6.8423   7.3496
     7.7920   7.7922   8.5713   9.1824   9.4942   9.7401  13.3360  14.2558
    14.4817  15.6952

          k = 0.1500 0.1500 0.2500 (  5084 PWs)   bands (ev):

   -45.5738 -22.4719 -21.8014 -21.7843  -6.9574  -6.0555  -5.8335  -5.2095
    -5.1632  -5.1309  -5.0162  -4.9364   3.3986   6.3926   6.7949   7.2522
     7.7073   7.9501   8.4943   9.2341   9.3577   9.8185  13.5628  14.2461
    14.3846  15.1281

          k = 0.1500 0.1500 0.3500 (  5082 PWs)   bands (ev):

   -45.5735 -22.4711 -21.8179 -21.7836  -6.8746  -5.9774  -5.8097  -5.2074
    -5.1688  -5.1327  -5.0304  -4.9441   3.1963   6.4797   6.6740   7.0786
     7.6689   8.0518   8.5750   9.1006   9.2040   9.9853  13.6664  14.1351
    14.5167  14.8212

          k = 0.1500 0.1500 0.4500 (  5084 PWs)   bands (ev):

   -45.5733 -22.4705 -21.8280 -21.7832  -6.8251  -5.9188  -5.8010  -5.2008
    -5.1732  -5.1361  -5.0337  -4.9575   3.0784   6.5216   6.6838   6.8606
     7.7058   8.1256   8.5985   9.0041   9.1107  10.0804  13.6139  14.0647
    14.6974  14.7649

          k = 0.1500 0.2500 0.2500 (  5081 PWs)   bands (ev):

   -45.5735 -22.4893 -21.8006 -21.7835  -6.7772  -6.0819  -5.8135  -5.2075
    -5.1890  -5.1170  -4.9920  -4.9182   3.2177   6.1381   6.5402   7.0859
     7.7559   7.9136   8.3578   9.2381   9.5479   9.9551  13.4264  14.4288
    14.5364  15.1524

          k = 0.1500 0.2500 0.3500 (  5080 PWs)   bands (ev):

   -45.5731 -22.4884 -21.8170 -21.7828  -6.7038  -6.0419  -5.7926  -5.2041
    -5.1804  -5.1203  -4.9836  -4.8977   3.0902   6.1747   6.5087   6.8951
     7.4748   8.1141   8.4039   9.1535   9.3242   9.9448  13.6046  14.3580
    14.6331  15.1277

          k = 0.1500 0.2500 0.4500 (  5077 PWs)   bands (ev):

   -45.5729 -22.4879 -21.8271 -21.7824  -6.6609  -6.0244  -5.7688  -5.1962
    -5.1709  -5.1315  -4.9666  -4.8971   3.0110   6.2226   6.5428   6.7111
     7.2940   8.2297   8.6109   8.9198   9.2019   9.8858  13.8640  14.1904
    14.7940  15.0726

          k = 0.1500 0.3500 0.3500 (  5081 PWs)   bands (ev):

   -45.5727 -22.5057 -21.8160 -21.7820  -6.5112  -6.1213  -5.7674  -5.2070
    -5.1838  -5.0922  -4.9877  -4.8262   2.9700   5.8543   6.3074   6.8247
     7.4005   8.0234   8.3290   9.0559   9.4697   9.9008  13.6373  14.6093
    14.8078  15.4189

          k = 0.1500 0.3500 0.4500 (  5079 PWs)   bands (ev):

   -45.5725 -22.5051 -21.8261 -21.7816  -6.4798  -6.1242  -5.7352  -5.2000
    -5.1656  -5.1083  -4.9769  -4.7895   2.9306   5.8560   6.3670   6.7332
     7.0788   8.2635   8.3726   8.7262   9.3309   9.8967  13.8760  14.6280
    14.8513  15.4252

          k = 0.1500 0.4500 0.4500 (  5073 PWs)   bands (ev):

   -45.5723 -22.5157 -21.8255 -21.7812  -6.3323  -6.2124  -5.7149  -5.2032
    -5.1604  -5.0838  -4.9932  -4.7286   2.8753   5.6110   6.2133   6.8638
     7.0587   7.9809   8.3731   8.5773   9.3819   9.9778  13.9042  14.8670
    14.9440  15.6638

          k = 0.2500 0.2500 0.2500 (  5070 PWs)   bands (ev):

   -45.5731 -22.4885 -21.8001 -21.7997  -6.7276  -6.0319  -5.8194  -5.1905
    -5.1860  -5.0975  -4.9689  -4.8891   3.2091   5.9178   6.4088   6.8481
     7.7132   7.8167   8.3216   9.3613   9.6868   9.8574  13.3459  14.4540
    14.4591  15.2350

          k = 0.2500 0.2500 0.3500 (  5072 PWs)   bands (ev):

   -45.5728 -22.4876 -21.8162 -21.7992  -6.6879  -5.9854  -5.8113  -5.1841
    -5.1560  -5.0840  -4.9425  -4.8703   3.1787   5.8533   6.2296   6.6491
     7.4544   7.7928   8.4380   9.3245   9.5240   9.9551  13.4908  14.3888
    14.6169  15.3624

          k = 0.2500 0.2500 0.4500 (  5073 PWs)   bands (ev):

   -45.5725 -22.4871 -21.8263 -21.7988  -6.6680  -5.9657  -5.7921  -5.1783
    -5.1312  -5.0799  -4.9153  -4.8719   3.1495   5.9012   6.1051   6.4771
     7.3117   7.8213   8.4754   9.1901   9.4699   9.9777  13.8332  14.1981
    14.7839  15.4222

          k = 0.2500 0.3500 0.3500 (  5057 PWs)   bands (ev):

   -45.5724 -22.5049 -21.8153 -21.7984  -6.5074  -6.0628  -5.8423  -5.1865
    -5.1417  -5.0533  -4.8934  -4.7937   3.1608   5.5673   6.1208   6.3978
     7.3078   7.7705   8.0718   9.2595   9.6324   9.9657  13.6609  14.6164
    14.7442  15.6623

          k = 0.2500 0.3500 0.4500 (  5063 PWs)   bands (ev):

   -45.5722 -22.5043 -21.8254 -21.7980  -6.4979  -6.0652  -5.8182  -5.1779
    -5.1076  -5.0606  -4.8656  -4.7602   3.1889   5.5722   6.0804   6.2285
     7.0621   7.8053   7.9028   9.1332   9.7134   9.9634  13.9731  14.5288
    14.8443  15.8090

          k = 0.2500 0.4500 0.4500 (  5070 PWs)   bands (ev):

   -45.5720 -22.5149 -21.8248 -21.7975  -6.3759  -6.1349  -5.8340  -5.1769
    -5.0921  -5.0460  -4.8385  -4.6965   3.1983   5.3768   5.9840   6.2871
     6.9716   7.3391   7.8518   9.0913   9.8242   9.9795  14.0955  14.7815
    14.9008  16.0647

          k = 0.3500 0.3500 0.3500 (  5055 PWs)   bands (ev):

   -45.5720 -22.5040 -21.8147 -21.8145  -6.5195  -5.9979  -5.8915  -5.1652
    -5.1110  -5.0090  -4.8121  -4.7541   3.3775   5.3554   5.8349   6.2033
     7.1836   7.4584   7.6609   9.4643   9.5557  10.2416  13.8935  14.7067
    14.7101  15.9475

          k = 0.3500 0.3500 0.4500 (  5056 PWs)   bands (ev):

   -45.5718 -22.5035 -21.8247 -21.8142  -6.5312  -5.9845  -5.8858  -5.1532
    -5.0955  -4.9771  -4.7675  -4.7263   3.5264   5.3063   5.5958   6.1271
     7.0280   7.2853   7.4127   9.4604   9.6490  10.3534  14.2032  14.5997
    14.8255  16.1993

          k = 0.3500 0.4500 0.4500 (  5051 PWs)   bands (ev):

   -45.5716 -22.5141 -21.8241 -21.8137  -6.4303  -6.0392  -5.9241  -5.1518
    -5.0793  -4.9604  -4.7106  -4.6590   3.6633   5.1237   5.7593   5.9101
     6.5332   6.9362   7.4111   9.4986   9.7444  10.3600  14.3560  14.8026
    14.9132  16.4765

          k = 0.4500 0.4500 0.4500 (  5034 PWs)   bands (ev):

   -45.5714 -22.5136 -21.8237 -21.8237  -6.4625  -5.9825  -5.9686  -5.1376
    -5.0733  -4.9068  -4.6402  -4.6320   4.1758   4.9939   5.2837   5.8671
     6.0400   6.8030   7.2386   9.6988   9.7164  10.5299  14.5863  14.8808
    14.8889  16.7979

          k =-0.0500 0.1500 0.0500 (  5074 PWs)   bands (ev):

   -45.5746 -22.4737 -21.7750 -21.7750  -7.1584  -6.1979  -5.8997  -5.1971
    -5.1318  -5.1287  -4.9806  -4.9453   3.9675   6.5072   6.5979   7.2427
     7.8407   7.8788   8.7007   9.0875   9.6964   9.7626  12.8936  14.5655
    14.6850  15.3423

          k =-0.0500 0.2500 0.0500 (  5093 PWs)   bands (ev):

   -45.5743 -22.4913 -21.7743 -21.7742  -6.9615  -6.1949  -5.8225  -5.1962
    -5.1502  -5.1378  -5.0208  -4.9800   3.5434   6.4038   6.4672   6.9536
     7.9032   7.9574   9.0168   9.1639   9.8287   9.8291  12.8958  14.7766
    14.9206  15.3858

          k =-0.0500 0.3500 0.0500 (  5090 PWs)   bands (ev):

   -45.5739 -22.5089 -21.7735 -21.7735  -6.7233  -6.2264  -5.7241  -5.1953
    -5.1879  -5.1453  -5.0981  -4.9827   3.1880   6.2848   6.3035   6.6132
     7.9852   8.0429   8.9458   9.6231   9.8945  10.1576  12.8966  14.3662
    14.9709  15.1848

          k =-0.0500 0.4500 0.0500 (  5073 PWs)   bands (ev):

   -45.5737 -22.5196 -21.7731 -21.7730  -6.4989  -6.3190  -5.6396  -5.2506
    -5.1948  -5.1490  -5.1302  -4.9864   2.9911   6.0969   6.2433   6.4726
     8.0428   8.0984   8.9025   9.7657   9.9353  10.6417  12.8931  13.6093
    15.0716  15.3458

          k = 0.1500 0.0500 0.1500 (  5079 PWs)   bands (ev):

   -45.5744 -22.4618 -21.7856 -21.7852  -7.1500  -6.1235  -5.8871  -5.2081
    -5.1312  -5.1295  -5.0145  -4.9298   3.7902   6.5436   7.1123   7.3502
     7.7041   7.7201   8.6789   9.1903   9.2851   9.7190  13.3648  14.1157
    14.3350  16.0007

          k =-0.0500 0.2500 0.1500 (  5077 PWs)   bands (ev):

   -45.5740 -22.4908 -21.7845 -21.7739  -6.9047  -6.1613  -5.8193  -5.2037
    -5.1693  -5.1358  -4.9938  -4.9796   3.4105   6.3717   6.5354   7.1285
     7.7205   7.9668   8.8604   9.1140   9.6054   9.9645  13.1510  14.5494
    14.8893  15.3418

          k = 0.2500 0.0500 0.1500 (  5077 PWs)   bands (ev):

   -45.5741 -22.4610 -21.8020 -21.7847  -7.0610  -6.0467  -5.8431  -5.2100
    -5.1438  -5.1295  -5.0470  -4.9459   3.5044   6.5776   7.0086   7.3669
     7.6632   7.8241   8.7208   9.1719   9.2592   9.7167  13.6482  14.1228
    14.2667  15.1800

          k =-0.0500 0.3500 0.1500 (  5080 PWs)   bands (ev):

   -45.5737 -22.5082 -21.7837 -21.7731  -6.6743  -6.1972  -5.7431  -5.2081
    -5.2026  -5.1401  -5.0224  -4.9898   3.1063   6.1332   6.3589   6.8797
     7.7810   8.0582   8.9903   9.1820   9.7030  10.2678  13.1314  14.4585
    14.8613  15.1746

          k = 0.3500 0.0500 0.1500 (  5080 PWs)   bands (ev):

   -45.5737 -22.4603 -21.8185 -21.7841  -6.9741  -5.9479  -5.8060  -5.2081
    -5.1586  -5.1291  -5.0990  -4.9552   3.2536   6.6887   6.7905   7.2616
     7.7559   7.9304   8.6759   9.0447   9.2321   9.9575  13.7334  14.0408
    14.4379  14.6221

          k =-0.0500 0.4500 0.1500 (  5079 PWs)   bands (ev):

   -45.5734 -22.5190 -21.7832 -21.7727  -6.4607  -6.2874  -5.6836  -5.2473
    -5.2023  -5.1436  -5.0314  -5.0011   2.9325   5.9380   6.2673   6.7545
     7.8337   8.1179   8.9902   9.2910   9.7555  10.5093  13.1113  14.0239
    14.9729  15.3210

          k = 0.4500 0.0500 0.1500 (  5079 PWs)   bands (ev):

   -45.5735 -22.4598 -21.8286 -21.7837  -6.9218  -5.8552  -5.8037  -5.2067
    -5.1740  -5.1333  -5.1282  -4.9616   3.1128   6.6139   6.8752   7.0727
     7.8746   8.1135   8.4098   8.9825   9.2189  10.2484  13.3478  14.1299
    14.4967  14.7039

          k = 0.2500 0.0500 0.2500 (  5076 PWs)   bands (ev):

   -45.5737 -22.4603 -21.8015 -21.8010  -7.0011  -5.9721  -5.7912  -5.1946
    -5.1442  -5.1387  -5.0400  -4.9806   3.3245   6.4556   6.8851   7.2701
     7.4914   7.8366   8.8559   9.2645   9.3586   9.7652  13.7183  14.1391
    14.2358  15.1094

          k =-0.0500 0.3500 0.2500 (  5080 PWs)   bands (ev):

   -45.5733 -22.5072 -21.8001 -21.7725  -6.5979  -6.1620  -5.7443  -5.2151
    -5.2057  -5.1383  -5.0253  -4.9159   2.9804   6.0351   6.4758   7.1056
     7.5675   8.0607   8.5947   9.1292   9.3799  10.2259  13.4572  14.4922
    15.0072  15.2087

          k = 0.3500 0.0500 0.2500 (  5080 PWs)   bands (ev):

   -45.5734 -22.4595 -21.8177 -21.8005  -6.9484  -5.8724  -5.7436  -5.1804
    -5.1484  -5.1384  -5.0654  -4.9978   3.1476   6.4533   6.6922   6.9944
     7.4699   7.9851   8.8208   9.1993   9.4222   9.9920  13.6967  14.1491
    14.4397  14.8459

          k =-0.0500 0.4500 0.2500 (  5084 PWs)   bands (ev):

   -45.5731 -22.5179 -21.7996 -21.7720  -6.4050  -6.2507  -5.6960  -5.2338
    -5.2131  -5.1411  -5.0331  -4.9018   2.8423   5.8033   6.3842   7.0199
     7.5606   8.1328   8.7055   9.0738   9.4312  10.2779  13.4335  14.4948
    15.0992  15.3075

          k = 0.4500 0.0500 0.2500 (  5084 PWs)   bands (ev):

   -45.5731 -22.4591 -21.8278 -21.8001  -6.9195  -5.7791  -5.7319  -5.1846
    -5.1431  -5.1398  -5.0859  -5.0053   3.0410   6.5287   6.5621   6.7521
     7.4970   8.2056   8.5625   9.2296   9.4027  10.1908  13.6029  14.1397
    14.6898  14.7164

          k = 0.3500 0.0500 0.3500 (  5079 PWs)   bands (ev):

   -45.5730 -22.4588 -21.8171 -21.8167  -6.9315  -5.7717  -5.6797  -5.1622
    -5.1542  -5.1295  -5.0476  -5.0311   3.0351   6.3309   6.5272   6.7244
     7.3022   8.1405   8.9094   9.0305   9.5173  10.1848  13.7947  14.3153
    14.4061  15.0515

          k =-0.0500 0.4500 0.3500 (  5079 PWs)   bands (ev):

   -45.5727 -22.5169 -21.8159 -21.7714  -6.3616  -6.2287  -5.6535  -5.2258
    -5.2177  -5.1381  -5.0622  -4.8006   2.7592   5.7274   6.5169   7.0676
     7.5524   7.9546   8.4791   8.8856   9.0985  10.1510  13.6818  14.7390
    15.2623  15.4123

          k = 0.4500 0.0500 0.3500 (  5079 PWs)   bands (ev):

   -45.5728 -22.4583 -21.8270 -21.8164  -6.9249  -5.6835  -5.6499  -5.1650
    -5.1514  -5.1336  -5.0651  -5.0162   2.9633   6.3247   6.3994   6.5090
     7.2697   8.3225   8.7190   9.0509   9.4693  10.3616  13.9407  14.1974
    14.6013  15.0748

          k = 0.4500 0.0500 0.4500 (  5100 PWs)   bands (ev):

   -45.5726 -22.4579 -21.8265 -21.8264  -6.9311  -5.6090  -5.5968  -5.1574
    -5.1495  -5.1294  -5.1127  -4.9778   2.9127   6.2413   6.2699   6.3521
     7.1977   8.4531   8.8326   8.8346   9.3791  10.5512  14.1614  14.3999
    14.4151  15.3218

          k =-0.1500 0.2500 0.1500 (  5084 PWs)   bands (ev):

   -45.5738 -22.4902 -21.7842 -21.7840  -6.8549  -6.1301  -5.8196  -5.2063
    -5.1852  -5.1234  -4.9922  -4.9532   3.3401   6.2077   6.5530   7.2400
     7.6966   7.9059   8.6152   9.1606   9.7789   9.8428  13.2722  14.4954
    14.6388  15.2407

          k =-0.1500 0.3500 0.1500 (  5082 PWs)   bands (ev):

   -45.5735 -22.5077 -21.7834 -21.7832  -6.6315  -6.1688  -5.7723  -5.2186
    -5.2047  -5.1030  -4.9942  -4.9732   3.0805   6.0402   6.2183   7.1179
     7.6694   8.0000   8.7234   9.1310   9.8225  10.1423  13.1950  14.5442
    14.7529  15.1341

          k =-0.1500 0.4500 0.1500 (  5084 PWs)   bands (ev):

   -45.5732 -22.5184 -21.7829 -21.7827  -6.4284  -6.2547  -5.7401  -5.2402
    -5.2036  -5.0780  -5.0078  -4.9877   2.9267   5.9458   5.9845   7.0471
     7.7076   8.0519   8.8038   9.1101   9.8516  10.2669  13.1623  14.4283
    14.9235  15.1628

          k = 0.2500 0.1500 0.2500 (  5081 PWs)   bands (ev):

   -45.5735 -22.4711 -21.8010 -21.8005  -6.9006  -5.9926  -5.8017  -5.1931
    -5.1690  -5.1250  -5.0094  -4.9389   3.2894   6.2170   6.6383   7.1116
     7.6039   7.9100   8.5772   9.3112   9.5376   9.8002  13.5219  14.2435
    14.3453  15.1005

          k =-0.1500 0.3500 0.2500 (  5080 PWs)   bands (ev):

   -45.5731 -22.5067 -21.7997 -21.7827  -6.5678  -6.1341  -5.7899  -5.2143
    -5.2004  -5.0875  -4.9943  -4.8952   3.0295   5.8991   6.2447   7.0301
     7.7259   7.8764   8.3649   9.2176   9.6700  10.0027  13.3694  14.5473
    14.7837  15.2624

          k = 0.3500 0.1500 0.2500 (  5080 PWs)   bands (ev):

   -45.5731 -22.4703 -21.8171 -21.8000  -6.8519  -5.9144  -5.7743  -5.1819
    -5.1607  -5.1124  -5.0108  -4.9479   3.1670   6.1867   6.4640   6.8581
     7.5403   7.9257   8.6954   9.2454   9.4461   9.9770  13.5349  14.2131
    14.5199  15.0569

          k =-0.1500 0.4500 0.2500 (  5077 PWs)   bands (ev):

   -45.5729 -22.5174 -21.7992 -21.7822  -6.3851  -6.2165  -5.7746  -5.2245
    -5.1990  -5.0513  -5.0163  -4.8812   2.9113   5.7406   6.0495   7.0536
     7.6855   7.8947   8.3904   9.1848   9.7230   9.9590  13.4067  14.7032
    14.9822  15.2477

          k = 0.4500 0.1500 0.2500 (  5077 PWs)   bands (ev):

   -45.5729 -22.4698 -21.8272 -21.7996  -6.8258  -5.8544  -5.7635  -5.1799
    -5.1462  -5.0982  -5.0142  -4.9615   3.0872   6.2579   6.3513   6.6129
     7.5486   7.9703   8.7326   9.1978   9.3247  10.0670  13.6973  14.0719
    14.7318  15.0073

          k = 0.3500 0.1500 0.3500 (  5081 PWs)   bands (ev):

   -45.5728 -22.4695 -21.8165 -21.8162  -6.8390  -5.8344  -5.7422  -5.1641
    -5.1562  -5.0723  -4.9924  -4.9589   3.1211   6.0319   6.2372   6.6503
     7.3718   7.9449   8.7624   9.2096   9.3707  10.1965  13.6252  14.3404
    14.5183  15.2932

          k =-0.1500 0.4500 0.3500 (  5079 PWs)   bands (ev):

   -45.5725 -22.5164 -21.8155 -21.7815  -6.3500  -6.2067  -5.7513  -5.2114
    -5.1814  -5.0610  -5.0078  -4.7828   2.8902   5.6411   6.1467   6.8869
     7.4313   7.8507   8.3413   8.9216   9.5191   9.9094  13.7069  14.7715
    14.9824  15.5985

          k = 0.4500 0.1500 0.3500 (  5079 PWs)   bands (ev):

   -45.5726 -22.4691 -21.8264 -21.8159  -6.8352  -5.7744  -5.7275  -5.1585
    -5.1457  -5.0367  -4.9854  -4.9732   3.0847   6.0154   6.0906   6.4642
     7.3146   7.9880   8.7721   9.1668   9.2254  10.3477  13.9012  14.2040
    14.6634  15.3905

          k = 0.4500 0.1500 0.4500 (  5073 PWs)   bands (ev):

   -45.5723 -22.4686 -21.8260 -21.8259  -6.8441  -5.7187  -5.7071  -5.1427
    -5.1416  -5.0022  -4.9867  -4.9629   3.0765   5.9219   5.9485   6.3252
     7.2110   8.0238   8.7390   9.1067   9.1193  10.5469  14.1619  14.3744
    14.5238  15.6419

          k =-0.2500 0.3500 0.2500 (  5072 PWs)   bands (ev):

   -45.5727 -22.5058 -21.7992 -21.7989  -6.5311  -6.0886  -5.8379  -5.2012
    -5.1774  -5.0599  -4.9390  -4.8494   3.1016   5.6726   6.1713   6.6916
     7.6988   7.7837   8.1371   9.3886   9.6370   9.9108  13.4055  14.5849
    14.7141  15.4357

          k =-0.2500 0.4500 0.2500 (  5073 PWs)   bands (ev):

   -45.5725 -22.5164 -21.7986 -21.7984  -6.3734  -6.1565  -5.8495  -5.2044
    -5.1719  -5.0289  -4.9282  -4.8280   3.0235   5.5378   5.9517   6.7471
     7.6070   7.8171   8.0228   9.3974   9.5142   9.9410  13.5524  14.7395
    14.9009  15.5709

          k = 0.3500 0.2500 0.3500 (  5057 PWs)   bands (ev):

   -45.5724 -22.4868 -21.8156 -21.8154  -6.6841  -5.9199  -5.8239  -5.1664
    -5.1341  -5.0362  -4.9014  -4.8480   3.2574   5.6595   5.9331   6.4914
     7.4269   7.5035   8.3031   9.4009   9.4191  10.2183  13.6523  14.4785
    14.6203  15.6188

          k =-0.2500 0.4500 0.3500 (  5063 PWs)   bands (ev):

   -45.5722 -22.5155 -21.8148 -21.7979  -6.3733  -6.1277  -5.8604  -5.1866
    -5.1322  -5.0309  -4.8691  -4.7482   3.1334   5.4025   5.9620   6.4449
     7.2185   7.6274   7.8904   9.1893   9.6738   9.9905  13.8432  14.7586
    14.8942  15.9008

          k = 0.4500 0.2500 0.3500 (  5063 PWs)   bands (ev):

   -45.5722 -22.4863 -21.8255 -21.8151  -6.6863  -5.8901  -5.8155  -5.1556
    -5.1215  -5.0008  -4.8686  -4.8448   3.2978   5.6309   5.7405   6.3569
     7.2985   7.4943   8.1222   9.3549   9.4340  10.3458  13.9957  14.3435
    14.7403  15.8093

          k = 0.4500 0.2500 0.4500 (  5070 PWs)   bands (ev):

   -45.5720 -22.4859 -21.8251 -21.8251  -6.7009  -5.8400  -5.8282  -5.1405
    -5.1155  -4.9501  -4.8387  -4.8310   3.3934   5.5141   5.5507   6.2440
     7.2237   7.4070   7.8469   9.4080   9.4176  10.5403  14.2783  14.4789
    14.6442  16.0723

          k =-0.3500 0.4500 0.3500 (  5056 PWs)   bands (ev):

   -45.5718 -22.5146 -21.8142 -21.8140  -6.4082  -6.0495  -5.9286  -5.1640
    -5.0967  -4.9907  -4.7604  -4.7011   3.4334   5.1885   5.8983   6.0468
     6.8748   7.2850   7.4727   9.4805   9.6132  10.2555  14.1058  14.7858
    14.8941  16.2217

          k = 0.4500 0.3500 0.4500 (  5051 PWs)   bands (ev):

   -45.5716 -22.5030 -21.8242 -21.8242  -6.5546  -5.9327  -5.9201  -5.1387
    -5.0894  -4.9249  -4.7115  -4.7032   3.8183   5.1785   5.2698   6.0609
     6.8674   6.9720   7.2333   9.6109   9.6253  10.5339  14.4772  14.7026
    14.7578  16.4943

     the Fermi energy is    10.5811 ev

!    total energy              =    -364.89555708 Ry
     Harris-Foulkes estimate   =    -364.89555708 Ry
     estimated scf accuracy    <          3.2E-09 Ry

     The total energy is the sum of the following terms:

     one-electron contribution =     -87.15061537 Ry
     hartree contribution      =      73.09498434 Ry
     xc contribution           =     -85.97230894 Ry
     ewald contribution        =    -264.87237326 Ry
     smearing contrib. (-TS)   =       0.00475614 Ry

     convergence has been achieved in  11 iterations

     Forces acting on atoms (cartesian axes, Ry/au):

     atom    1 type  1   force =     0.00000000   -0.03830965    0.00000000
     atom    2 type  2   force =     0.00000000    0.31914285    0.00000000
     atom    3 type  3   force =     0.00000000   -0.02216602    0.00000000
     atom    4 type  3   force =     0.00000000   -0.23650115    0.00000000
     atom    5 type  3   force =     0.00000000   -0.02216602    0.00000000

     Total force =     0.238570     Total SCF correction =     0.000014


     Computing stress (Cartesian axis) and pressure

          total   stress  (Ry/bohr**3)                   (kbar)     P=  114.78
   0.00021067   0.00000000   0.00000000         30.99      0.00      0.00
   0.00000000   0.00191947   0.00000000          0.00    282.36      0.00
   0.00000000   0.00000000   0.00021067          0.00      0.00     30.99


     BFGS Geometry Optimization

     number of scf cycles    =   1
     number of bfgs steps    =   0

     energy   new            =    -364.8955570814 Ry

     new trust radius        =       0.2365011513 bohr
     new conv_thr            =       0.0000000100 Ry


ATOMIC_POSITIONS (crystal)
Pb       0.000000000   0.000000000   0.000000000    0   0   0
Ti       0.500000000   0.400000000   0.500000000    0   0   0
O        0.500000000   0.497040585   0.000000000
O        0.500000000  -0.031575588   0.500000000
O        0.000000000   0.497040585   0.500000000



     Writing output data file PbTiO3.save/
     NEW-OLD atomic charge density approx. for the potential

     Check: negative core charge=   -0.000006

     total cpu time spent up to now is      282.1 secs

     Self-consistent Calculation

     iteration #  1     ecut=    80.00 Ry     beta= 0.70
     Davidson diagonalization with overlap
     ethr =  1.00E-06,  avg # of iterations =  9.5

     total cpu time spent up to now is      325.5 secs

     total energy              =    -364.91377980 Ry
     Harris-Foulkes estimate   =    -364.93305287 Ry
     estimated scf accuracy    <       0.02551940 Ry

     iteration #  2     ecut=    80.00 Ry     beta= 0.70
     Davidson diagonalization with overlap
     ethr =  5.80E-05,  avg # of iterations =  4.5

     total cpu time spent up to now is      353.5 secs

     total energy              =    -364.90145482 Ry
     Harris-Foulkes estimate   =    -364.94802706 Ry
     estimated scf accuracy    <       0.14231517 Ry

     iteration #  3     ecut=    80.00 Ry     beta= 0.70
     Davidson diagonalization with overlap
     ethr =  5.80E-05,  avg # of iterations =  4.4

     total cpu time spent up to now is      379.9 secs

     total energy              =    -364.92589670 Ry
     Harris-Foulkes estimate   =    -364.92701491 Ry
     estimated scf accuracy    <       0.00343552 Ry

     iteration #  4     ecut=    80.00 Ry     beta= 0.70
     Davidson diagonalization with overlap
     ethr =  7.81E-06,  avg # of iterations =  2.8

     total cpu time spent up to now is      401.0 secs

     total energy              =    -364.92626730 Ry
     Harris-Foulkes estimate   =    -364.92650883 Ry
     estimated scf accuracy    <       0.00053969 Ry

     iteration #  5     ecut=    80.00 Ry     beta= 0.70
     Davidson diagonalization with overlap
     ethr =  1.23E-06,  avg # of iterations =  3.1

     total cpu time spent up to now is      422.7 secs

     total energy              =    -364.92638398 Ry
     Harris-Foulkes estimate   =    -364.92643201 Ry
     estimated scf accuracy    <       0.00011766 Ry

     iteration #  6     ecut=    80.00 Ry     beta= 0.70
     Davidson diagonalization with overlap
     ethr =  2.67E-07,  avg # of iterations =  2.7

     total cpu time spent up to now is      443.7 secs

     total energy              =    -364.92640778 Ry
     Harris-Foulkes estimate   =    -364.92640856 Ry
     estimated scf accuracy    <       0.00000233 Ry

     iteration #  7     ecut=    80.00 Ry     beta= 0.70
     Davidson diagonalization with overlap
     ethr =  5.29E-09,  avg # of iterations =  3.6

     total cpu time spent up to now is      468.4 secs

     total energy              =    -364.92640886 Ry
     Harris-Foulkes estimate   =    -364.92640895 Ry
     estimated scf accuracy    <       0.00000029 Ry

     iteration #  8     ecut=    80.00 Ry     beta= 0.70
     Davidson diagonalization with overlap
     ethr =  6.51E-10,  avg # of iterations =  2.1

     total cpu time spent up to now is      488.4 secs

     total energy              =    -364.92640889 Ry
     Harris-Foulkes estimate   =    -364.92640890 Ry
     estimated scf accuracy    <       0.00000004 Ry

     iteration #  9     ecut=    80.00 Ry     beta= 0.70
     Davidson diagonalization with overlap
     ethr =  8.86E-11,  avg # of iterations =  3.5

     total cpu time spent up to now is      511.3 secs

     End of self-consistent calculation

          k = 0.0500 0.0500 0.0500 (  5047 PWs)   bands (ev):

   -45.9107 -22.3922 -22.1463 -22.1462  -7.2721  -6.2107  -6.0016  -5.1309
    -5.0804  -5.0804  -4.9413  -4.8905   4.3446   6.7644   6.8253   7.0938
     8.2363   8.2569   8.9789   9.0655   9.5206   9.6011  12.6062  13.7672
    13.8212  14.9545

          k = 0.0500 0.0500 0.1500 (  5074 PWs)   bands (ev):

   -45.9105 -22.3918 -22.1562 -22.1459  -7.2018  -6.1740  -5.9773  -5.1381
    -5.0893  -5.0800  -4.9664  -4.8977   4.0609   6.8291   6.9390   7.2520
     8.1224   8.2756   8.9407   9.0720   9.3217   9.6215  12.8917  13.5566
    13.8069  15.2166

          k = 0.0500 0.0500 0.2500 (  5093 PWs)   bands (ev):

   -45.9101 -22.3911 -22.1721 -22.1453  -7.0844  -6.1075  -5.9405  -5.1495
    -5.1054  -5.0795  -5.0182  -4.9031   3.7003   6.9056   7.0272   7.3234
     8.1911   8.2784   8.8443   9.0083   9.1552   9.6376  13.2964  13.5963
    13.8049  14.9367

          k = 0.0500 0.0500 0.3500 (  5090 PWs)   bands (ev):

   -45.9098 -22.3903 -22.1881 -22.1447  -6.9620  -6.0262  -5.9112  -5.1606
    -5.1306  -5.0791  -5.0709  -4.9086   3.4106   6.7163   7.2362   7.5000
     8.1157   8.2921   8.6447   8.8122   9.1624   9.9492  13.6411  13.7580
    13.8586  14.0944

          k = 0.0500 0.0500 0.4500 (  5073 PWs)   bands (ev):

   -45.9096 -22.3898 -22.1979 -22.1444  -6.8835  -5.9549  -5.9090  -5.1702
    -5.1588  -5.0941  -5.0786  -4.9133   3.2556   6.5493   7.4974   7.7104
     7.9173   8.1537   8.5130   8.6789   9.2004  10.3662  13.2316  13.8514
    13.8737  14.1516

          k = 0.0500 0.1500 0.1500 (  5079 PWs)   bands (ev):

   -45.9103 -22.4029 -22.1557 -22.1455  -7.0964  -6.1644  -5.9462  -5.1377
    -5.1016  -5.0870  -4.9568  -4.9234   3.8350   6.7630   6.8510   7.3352
     8.0473   8.2034   8.8241   9.0961   9.3960   9.7091  12.8881  13.7279
    13.9739  15.2517

          k = 0.0500 0.1500 0.2500 (  5077 PWs)   bands (ev):

   -45.9099 -22.4021 -22.1717 -22.1449  -6.9827  -6.1052  -5.9217  -5.1495
    -5.1187  -5.0867  -4.9849  -4.9182   3.5496   6.7776   6.9797   7.3131
     8.0699   8.1974   8.6841   9.0447   9.1684   9.8270  13.2817  13.7520
    13.9685  14.9566

          k = 0.0500 0.1500 0.3500 (  5080 PWs)   bands (ev):

   -45.9096 -22.4013 -22.1875 -22.1443  -6.8651  -6.0377  -5.9028  -5.1607
    -5.1381  -5.0865  -5.0059  -4.9225   3.3066   6.6594   7.1683   7.3342
     7.9482   8.2068   8.6775   8.8027   9.1093  10.0254  13.6183  13.9158
    13.9781  14.2566

          k = 0.0500 0.1500 0.4500 (  5079 PWs)   bands (ev):

   -45.9094 -22.4008 -22.1973 -22.1439  -6.7901  -5.9874  -5.8980  -5.1651
    -5.1566  -5.0863  -5.0106  -4.9322   3.1730   6.5225   7.3683   7.4559
     7.7225   8.1213   8.5863   8.8817   9.0321  10.1990  13.5894  13.8370
    14.0411  14.2123

          k = 0.0500 0.2500 0.2500 (  5076 PWs)   bands (ev):

   -45.9096 -22.4198 -22.1709 -22.1442  -6.8079  -6.1148  -5.8792  -5.1491
    -5.1314  -5.0945  -4.9698  -4.9214   3.3191   6.5400   6.9071   7.1840
     7.9023   8.0943   8.5457   9.1405   9.2848  10.0297  13.2524  13.9791
    14.2287  14.9305

          k = 0.0500 0.2500 0.3500 (  5080 PWs)   bands (ev):

   -45.9092 -22.4190 -22.1867 -22.1436  -6.7031  -6.0776  -5.8557  -5.1590
    -5.1373  -5.0957  -4.9777  -4.8980   3.1408   6.4818   7.0391   7.1197
     7.7599   8.1181   8.4359   8.8698   9.3442  10.0182  13.5681  14.1030
    14.2079  14.5938

          k = 0.0500 0.2500 0.4500 (  5084 PWs)   bands (ev):

   -45.9090 -22.4184 -22.1964 -22.1432  -6.6382  -6.0592  -5.8329  -5.1613
    -5.1482  -5.0967  -4.9724  -4.8922   3.0395   6.4056   7.0669   7.2621
     7.4621   8.2304   8.4299   8.7374   9.3534   9.9526  13.7530  14.1097
    14.2887  14.4189

          k = 0.0500 0.3500 0.3500 (  5079 PWs)   bands (ev):

   -45.9089 -22.4365 -22.1858 -22.1429  -6.5352  -6.1176  -5.7921  -5.1581
    -5.1442  -5.0983  -5.0045  -4.8319   2.9791   6.1388   6.9502   6.9674
     7.7137   7.9304   8.4227   8.9616   9.3552  10.0442  13.5149  14.2295
    14.4985  14.9998

          k = 0.0500 0.3500 0.4500 (  5079 PWs)   bands (ev):

   -45.9087 -22.4360 -22.1955 -22.1425  -6.4939  -6.1040  -5.7567  -5.1597
    -5.1473  -5.1003  -5.0118  -4.7948   2.9073   6.1016   6.8567   7.0916
     7.4701   8.0736   8.4031   8.7931   9.2292  10.0117  13.6722  14.3656
    14.4914  14.9198

          k = 0.0500 0.4500 0.4500 (  5100 PWs)   bands (ev):

   -45.9084 -22.4467 -22.1949 -22.1421  -6.4210  -6.1063  -5.7029  -5.1602
    -5.1545  -5.0994  -5.0370  -4.7397   2.8265   5.8406   6.8053   6.9820
     7.5679   7.9008   8.5005   8.8263   8.9517  10.1604  13.6157  14.4213
    14.6813  15.3079

          k = 0.1500 0.1500 0.1500 (  5095 PWs)   bands (ev):

   -45.9101 -22.4024 -22.1555 -22.1552  -7.0340  -6.1353  -5.9284  -5.1423
    -5.1075  -5.0893  -4.9605  -4.9210   3.6956   6.6810   6.8397   7.4067
     7.9758   8.1989   8.6726   9.1626   9.5312   9.6376  13.0723  13.6818
    13.8113  15.6648

          k = 0.1500 0.1500 0.2500 (  5084 PWs)   bands (ev):

   -45.9097 -22.4016 -22.1712 -22.1547  -6.9331  -6.0828  -5.9021  -5.1475
    -5.1152  -5.0887  -4.9747  -4.9181   3.4809   6.6676   6.8220   7.2996
     7.8625   8.1581   8.7195   9.2088   9.3635   9.7804  13.3160  13.7097
    13.7996  15.0450

          k = 0.1500 0.1500 0.3500 (  5082 PWs)   bands (ev):

   -45.9094 -22.4008 -22.1871 -22.1541  -6.8329  -6.0200  -5.8813  -5.1516
    -5.1130  -5.0891  -4.9927  -4.9226   3.2818   6.6223   6.8374   7.1598
     7.7487   8.1619   8.8334   9.0423   9.2740   9.9523  13.4584  13.7589
    14.0050  14.5356

          k = 0.1500 0.1500 0.4500 (  5084 PWs)   bands (ev):

   -45.9092 -22.4004 -22.1969 -22.1537  -6.7718  -5.9710  -5.8754  -5.1516
    -5.1070  -5.0928  -5.0014  -4.9326   3.1669   6.5178   6.9003   7.0844
     7.7057   8.2362   8.6642   9.1082   9.2089  10.0368  13.4763  13.8232
    14.2170  14.2830

          k = 0.1500 0.2500 0.2500 (  5081 PWs)   bands (ev):

   -45.9094 -22.4194 -22.1704 -22.1540  -6.7595  -6.0976  -5.8846  -5.1468
    -5.1335  -5.0754  -4.9525  -4.9043   3.3174   6.4283   6.6313   7.0815
     7.8049   8.0873   8.5709   9.2945   9.4771   9.9094  13.2180  13.9501
    14.0109  14.9561

          k = 0.1500 0.2500 0.3500 (  5080 PWs)   bands (ev):

   -45.9090 -22.4185 -22.1862 -22.1534  -6.6690  -6.0676  -5.8655  -5.1473
    -5.1203  -5.0754  -4.9510  -4.8839   3.1892   6.4108   6.6262   6.9022
     7.4768   8.1690   8.7266   9.1566   9.3758   9.8745  13.4224  13.9629
    14.1293  14.8479

          k = 0.1500 0.2500 0.4500 (  5077 PWs)   bands (ev):

   -45.9088 -22.4180 -22.1960 -22.1530  -6.6153  -6.0547  -5.8441  -5.1429
    -5.1043  -5.0866  -4.9420  -4.8805   3.1108   6.3845   6.6717   6.7698
     7.2908   8.2757   8.8699   8.9665   9.2967   9.7990  13.6673  13.8870
    14.2968  14.7621

          k = 0.1500 0.3500 0.3500 (  5081 PWs)   bands (ev):

   -45.9087 -22.4361 -22.1854 -22.1526  -6.4943  -6.1202  -5.8422  -5.1481
    -5.1191  -5.0490  -4.9590  -4.8175   3.0828   6.0878   6.4578   6.7594
     7.3401   8.1327   8.5809   9.1683   9.4125   9.8798  13.4428  14.2176
    14.2857  15.1877

          k = 0.1500 0.3500 0.4500 (  5079 PWs)   bands (ev):

   -45.9084 -22.4355 -22.1951 -22.1523  -6.4569  -6.1214  -5.8113  -5.1422
    -5.0959  -5.0653  -4.9559  -4.7809   3.0403   6.0664   6.4784   6.7172
     7.0206   8.2720   8.6731   8.8675   9.2549   9.9282  13.6761  14.2229
    14.3733  15.2381

          k = 0.1500 0.4500 0.4500 (  5073 PWs)   bands (ev):

   -45.9082 -22.4463 -22.1945 -22.1518  -6.3640  -6.1495  -5.7915  -5.1425
    -5.0884  -5.0402  -4.9765  -4.7243   2.9904   5.8140   6.3353   6.7802
     6.9675   8.2193   8.4555   8.7401   9.2766  10.0732  13.7000  14.4214
    14.4622  15.5677

          k = 0.2500 0.2500 0.2500 (  5070 PWs)   bands (ev):

   -45.9090 -22.4186 -22.1699 -22.1696  -6.6886  -6.0653  -5.8891  -5.1346
    -5.1281  -5.0513  -4.9314  -4.8786   3.2984   6.2300   6.4737   6.8694
     7.6866   7.8000   8.7532   9.4289   9.6408   9.7672  13.1716  13.9449
    14.0040  15.0071

          k = 0.2500 0.2500 0.3500 (  5072 PWs)   bands (ev):

   -45.9087 -22.4178 -22.1855 -22.1691  -6.6290  -6.0327  -5.8808  -5.1273
    -5.1052  -5.0269  -4.9128  -4.8610   3.2595   6.1617   6.3196   6.6568
     7.3998   7.7708   8.8189   9.4009   9.4909   9.8756  13.3187  13.9515
    14.1544  15.1360

          k = 0.2500 0.2500 0.4500 (  5073 PWs)   bands (ev):

   -45.9085 -22.4172 -22.1952 -22.1687  -6.5984  -6.0180  -5.8630  -5.1217
    -5.0886  -5.0084  -4.8981  -4.8592   3.2269   6.1965   6.2411   6.4487
     7.2614   7.8156   8.7232   9.3186   9.4578   9.9090  13.6215  13.8595
    14.3152  15.2235

          k = 0.2500 0.3500 0.3500 (  5057 PWs)   bands (ev):

   -45.9083 -22.4353 -22.1847 -22.1684  -6.4521  -6.0974  -5.9085  -5.1260
    -5.0877  -4.9934  -4.8757  -4.7903   3.2647   5.8602   6.1798   6.3665
     7.2235   7.7014   8.4233   9.3619   9.7185   9.8844  13.4600  14.1783
    14.2745  15.4558

          k = 0.2500 0.3500 0.4500 (  5063 PWs)   bands (ev):

   -45.9081 -22.4347 -22.1944 -22.1680  -6.4315  -6.1043  -5.8846  -5.1178
    -5.0638  -4.9859  -4.8577  -4.7555   3.2888   5.8641   6.1178   6.2092
     6.9888   7.7563   8.1089   9.3171   9.7876   9.9229  13.7525  14.1180
    14.3894  15.6551

          k = 0.2500 0.4500 0.4500 (  5070 PWs)   bands (ev):

   -45.9079 -22.4455 -22.1939 -22.1675  -6.3128  -6.1657  -5.8979  -5.1155
    -5.0465  -4.9696  -4.8355  -4.6961   3.3132   5.6598   5.9724   6.2201
     6.8900   7.5740   7.7970   9.2974   9.8687  10.0132  13.8562  14.3396
    14.4554  15.9480

          k = 0.3500 0.3500 0.3500 (  5055 PWs)   bands (ev):

   -45.9080 -22.4345 -22.1841 -22.1840  -6.4405  -6.0511  -5.9527  -5.1034
    -5.0674  -4.9349  -4.8018  -4.7559   3.4659   5.6453   5.9026   6.1887
     7.1424   7.3081   7.8619   9.6254   9.7397  10.1450  13.6697  14.2607
    14.2839  15.7708

          k = 0.3500 0.3500 0.4500 (  5056 PWs)   bands (ev):

   -45.9078 -22.4340 -22.1937 -22.1836  -6.4442  -6.0403  -5.9462  -5.0915
    -5.0554  -4.8957  -4.7667  -4.7269   3.5998   5.5921   5.7132   6.0943
     6.9828   7.2604   7.4005   9.6695   9.8366  10.2561  13.9493  14.1994
    14.3982  16.0697

          k = 0.3500 0.4500 0.4500 (  5051 PWs)   bands (ev):

   -45.9075 -22.4447 -22.1932 -22.1831  -6.3397  -6.0941  -5.9816  -5.0894
    -5.0389  -4.8755  -4.7141  -4.6632   3.7724   5.3957   5.7500   5.8726
     6.6593   6.9237   7.2656   9.7360   9.9701  10.2614  14.0876  14.3799
    14.4787  16.3527

          k = 0.4500 0.4500 0.4500 (  5034 PWs)   bands (ev):

   -45.9073 -22.4442 -22.1928 -22.1928  -6.3684  -6.0375  -6.0233  -5.0750
    -5.0338  -4.8190  -4.6465  -4.6395   4.2547   5.2635   5.4222   5.8098
     6.0532   6.8048   7.0437   9.9458   9.9617  10.4302  14.2936  14.4675
    14.4725  16.7043

          k =-0.0500 0.1500 0.0500 (  5074 PWs)   bands (ev):

   -45.9105 -22.4033 -22.1458 -22.1458  -7.1648  -6.1983  -5.9630  -5.1304
    -5.0896  -5.0869  -4.9388  -4.9305   4.0410   6.7510   6.7850   7.1970
     8.1853   8.1876   8.9332   9.0334   9.6005   9.6501  12.6078  13.9264
    13.9890  14.9661

          k =-0.0500 0.2500 0.0500 (  5093 PWs)   bands (ev):

   -45.9101 -22.4212 -22.1451 -22.1451  -6.9757  -6.1887  -5.8928  -5.1295
    -5.1074  -5.0963  -4.9999  -4.9370   3.6482   6.7053   6.7172   6.9896
     8.1172   8.1378   8.9726   9.2181   9.7247   9.7614  12.6101  14.1825
    14.2570  14.9870

          k =-0.0500 0.3500 0.0500 (  5090 PWs)   bands (ev):

   -45.9098 -22.4390 -22.1444 -22.1444  -6.7532  -6.2061  -5.8078  -5.1416
    -5.1286  -5.1043  -5.0677  -4.9382   3.3279   6.3879   6.6703   6.8315
     8.0909   8.1239   8.9078   9.5567   9.7946  10.1370  12.6112  14.3404
    14.4335  14.5475

          k =-0.0500 0.4500 0.0500 (  5073 PWs)   bands (ev):

   -45.9096 -22.4499 -22.1440 -22.1440  -6.5711  -6.2577  -5.7420  -5.1908
    -5.1280  -5.1084  -5.0947  -4.9408   3.1551   6.1074   6.6359   6.7912
     8.0913   8.1285   8.8673   9.6735   9.8365  10.6125  12.6091  13.6037
    14.5809  14.7011

          k = 0.1500 0.0500 0.1500 (  5079 PWs)   bands (ev):

   -45.9103 -22.3913 -22.1559 -22.1556  -7.1380  -6.1412  -5.9508  -5.1427
    -5.0889  -5.0882  -4.9719  -4.9132   3.8605   6.7855   7.0118   7.3688
     7.9752   8.2640   8.7982   9.1361   9.4042   9.6180  13.0930  13.5252
    13.6273  15.6555

          k =-0.0500 0.2500 0.1500 (  5077 PWs)   bands (ev):

   -45.9099 -22.4207 -22.1550 -22.1448  -6.9119  -6.1593  -5.8901  -5.1370
    -5.1235  -5.0946  -4.9649  -4.9479   3.5162   6.5967   6.7790   7.1742
     7.9472   8.1424   8.8816   9.1079   9.5131   9.9225  12.8794  13.9953
    14.2393  15.2148

          k = 0.2500 0.0500 0.1500 (  5077 PWs)   bands (ev):

   -45.9099 -22.3906 -22.1717 -22.1552  -7.0342  -6.0797  -5.9103  -5.1471
    -5.1017  -5.0876  -5.0029  -4.9242   3.5766   6.8257   7.0081   7.3903
     7.8949   8.1079   8.8854   9.1326   9.3827   9.6600  13.3635  13.5726
    13.6462  15.1312

          k =-0.0500 0.3500 0.1500 (  5080 PWs)   bands (ev):

   -45.9096 -22.4384 -22.1542 -22.1441  -6.6977  -6.1785  -5.8244  -5.1558
    -5.1359  -5.0998  -4.9985  -4.9491   3.2397   6.2929   6.6715   7.0244
     7.9003   8.1335   9.0035   9.1333   9.6047  10.2356  12.8649  14.2158
    14.4662  14.6261

          k = 0.3500 0.0500 0.1500 (  5080 PWs)   bands (ev):

   -45.9096 -22.3899 -22.1876 -22.1545  -6.9303  -5.9999  -5.8778  -5.1511
    -5.1130  -5.0870  -5.0495  -4.9295   3.3307   6.7162   7.0355   7.4769
     7.8424   8.0217   8.7383   9.0847   9.3558   9.9536  13.4497  13.7202
    13.9104  14.3524

          k =-0.0500 0.4500 0.1500 (  5079 PWs)   bands (ev):

   -45.9093 -22.4493 -22.1538 -22.1436  -6.5265  -6.2259  -5.7767  -5.1859
    -5.1354  -5.1041  -5.0083  -4.9569   3.0855   6.0375   6.6039   6.9733
     7.8930   8.1446   9.0238   9.2066   9.6547  10.4787  12.8495  13.9807
    14.4848  14.6896

          k = 0.4500 0.0500 0.1500 (  5079 PWs)   bands (ev):

   -45.9094 -22.3894 -22.1974 -22.1542  -6.8664  -5.9233  -5.8778  -5.1590
    -5.1173  -5.0865  -5.0793  -4.9345   3.1940   6.5509   7.1821   7.4325
     7.8985   8.1080   8.3734   9.0766   9.3659  10.2468  13.3170  13.8749
    13.9491  14.1741

          k = 0.2500 0.0500 0.2500 (  5076 PWs)   bands (ev):

   -45.9096 -22.3899 -22.1713 -22.1708  -6.9576  -6.0223  -5.8623  -5.1373
    -5.1010  -5.0964  -4.9903  -4.9557   3.3828   6.7826   6.9356   7.4111
     7.6075   7.8881   9.0481   9.1545   9.5483   9.6970  13.3930  13.6225
    13.7635  15.0343

          k =-0.0500 0.3500 0.2500 (  5080 PWs)   bands (ev):

   -45.9092 -22.4375 -22.1700 -22.1435  -6.6123  -6.1426  -5.8251  -5.1539
    -5.1452  -5.0982  -4.9850  -4.9003   3.1044   6.1990   6.7889   7.0933
     7.7445   8.0943   8.5794   9.2086   9.3463  10.1745  13.2187  14.1505
    14.4941  14.8794

          k = 0.3500 0.0500 0.2500 (  5080 PWs)   bands (ev):

   -45.9092 -22.3892 -22.1869 -22.1704  -6.8882  -5.9408  -5.8204  -5.1326
    -5.1035  -5.0955  -5.0084  -4.9656   3.1987   6.6960   6.8500   7.2763
     7.5281   7.9201   8.8386   9.2052   9.5435   9.9435  13.4395  13.7782
    13.9822  14.6683

          k =-0.0500 0.4500 0.2500 (  5084 PWs)   bands (ev):

   -45.9090 -22.4483 -22.1696 -22.1430  -6.4678  -6.1793  -5.7865  -5.1720
    -5.1460  -5.1023  -4.9891  -4.8894   2.9792   5.9456   6.7001   7.0697
     7.6696   8.1308   8.6512   9.2164   9.3684  10.2281  13.1993  14.2175
    14.6712  14.8607

          k = 0.4500 0.0500 0.2500 (  5084 PWs)   bands (ev):

   -45.9090 -22.3887 -22.1966 -22.1699  -6.8496  -5.8597  -5.8138  -5.1394
    -5.1018  -5.0974  -5.0145  -4.9731   3.0904   6.5273   6.9315   7.1069
     7.5470   8.1342   8.4820   9.2885   9.4815  10.1190  13.4577  13.9068
    14.1983  14.3954

          k = 0.3500 0.0500 0.3500 (  5079 PWs)   bands (ev):

   -45.9089 -22.3885 -22.1863 -22.1860  -6.8578  -5.8549  -5.7631  -5.1214
    -5.1087  -5.0887  -5.0109  -4.9623   3.0654   6.5738   6.7640   7.0852
     7.2663   8.0543   8.8831   9.0032   9.5670  10.1093  13.6171  13.9004
    14.0553  14.9038

          k =-0.0500 0.4500 0.3500 (  5079 PWs)   bands (ev):

   -45.9087 -22.4474 -22.1853 -22.1424  -6.4311  -6.1358  -5.7470  -5.1626
    -5.1520  -5.1004  -5.0194  -4.7928   2.8817   5.8770   6.8523   6.9564
     7.6617   7.9044   8.4724   9.0138   9.2111  10.1125  13.4818  14.3209
    14.6799  15.3245

          k = 0.4500 0.0500 0.3500 (  5079 PWs)   bands (ev):

   -45.9087 -22.3880 -22.1958 -22.1857  -6.8444  -5.7749  -5.7400  -5.1230
    -5.1063  -5.0949  -5.0255  -4.9412   2.9832   6.4214   6.8021   6.9149
     7.2022   8.2605   8.6127   9.0342   9.4603  10.2726  13.7592  13.9685
    14.1946  14.9061

          k = 0.4500 0.0500 0.4500 (  5100 PWs)   bands (ev):

   -45.9085 -22.3876 -22.1954 -22.1953  -6.8457  -5.7069  -5.6938  -5.1191
    -5.1021  -5.0930  -5.0631  -4.9008   2.9157   6.2988   6.7820   6.8291
     7.0275   8.4331   8.6789   8.7728   9.3133  10.4547  13.9955  14.1022
    14.1406  15.1924

          k =-0.1500 0.2500 0.1500 (  5084 PWs)   bands (ev):

   -45.9097 -22.4202 -22.1547 -22.1545  -6.8531  -6.1348  -5.8903  -5.1409
    -5.1357  -5.0830  -4.9501  -4.9373   3.4428   6.5208   6.6451   7.2362
     7.9907   8.0598   8.6406   9.1799   9.6743   9.8334  13.0238  13.9468
    14.0691  15.1607

          k =-0.1500 0.3500 0.1500 (  5082 PWs)   bands (ev):

   -45.9094 -22.4379 -22.1539 -22.1538  -6.6447  -6.1564  -5.8495  -5.1622
    -5.1389  -5.0654  -4.9581  -4.9511   3.2083   6.3099   6.3713   7.1391
     7.9761   8.0153   8.6900   9.1755   9.7163  10.1156  12.9608  14.2263
    14.2586  14.7762

          k =-0.1500 0.4500 0.1500 (  5084 PWs)   bands (ev):

   -45.9091 -22.4487 -22.1535 -22.1533  -6.4794  -6.2032  -5.8225  -5.1780
    -5.1375  -5.0443  -4.9733  -4.9621   3.0724   6.0432   6.2839   7.1322
     7.9550   8.0333   8.7412   9.1654   9.7446  10.2411  12.9263  14.2998
    14.4070  14.6784

          k = 0.2500 0.1500 0.2500 (  5081 PWs)   bands (ev):

   -45.9094 -22.4009 -22.1708 -22.1704  -6.8583  -6.0368  -5.8724  -5.1369
    -5.1194  -5.0793  -4.9651  -4.9209   3.3587   6.5408   6.7050   7.1605
     7.6489   7.9986   8.8851   9.2883   9.5724   9.7206  13.3004  13.7295
    13.8553  14.9517

          k =-0.1500 0.3500 0.2500 (  5080 PWs)   bands (ev):

   -45.9090 -22.4370 -22.1697 -22.1532  -6.5647  -6.1299  -5.8642  -5.1555
    -5.1361  -5.0488  -4.9567  -4.8841   3.1491   6.1625   6.3854   6.9640
     7.7909   8.0286   8.4927   9.3163   9.5863   9.9531  13.1665  14.1560
    14.2646  15.0003

          k = 0.3500 0.1500 0.2500 (  5080 PWs)   bands (ev):

   -45.9090 -22.4001 -22.1864 -22.1699  -6.7918  -5.9743  -5.8476  -5.1323
    -5.1109  -5.0604  -4.9671  -4.9278   3.2283   6.4968   6.6005   6.9119
     7.5326   7.9795   8.9668   9.2149   9.4597   9.9022  13.3544  13.7996
    14.0505  14.8479

          k =-0.1500 0.4500 0.2500 (  5077 PWs)   bands (ev):

   -45.9088 -22.4478 -22.1692 -22.1528  -6.4168  -6.1738  -5.8515  -5.1622
    -5.1337  -5.0186  -4.9745  -4.8729   3.0448   5.9470   6.2230   6.9806
     7.8108   7.9994   8.4615   9.3021   9.6320   9.9171  13.1849  14.3012
    14.4613  15.0883

          k = 0.4500 0.1500 0.2500 (  5077 PWs)   bands (ev):

   -45.9088 -22.3997 -22.1961 -22.1695  -6.7556  -5.9221  -5.8393  -5.1307
    -5.1016  -5.0382  -4.9751  -4.9387   3.1460   6.4692   6.5665   6.7182
     7.5181   8.0237   8.8940   9.2265   9.3317   9.9823  13.4900  13.8243
    14.2469  14.7517

          k = 0.3500 0.1500 0.3500 (  5081 PWs)   bands (ev):

   -45.9087 -22.3994 -22.1858 -22.1855  -6.7642  -5.9065  -5.8172  -5.1152
    -5.1088  -5.0256  -4.9403  -4.9392   3.1595   6.4078   6.4177   6.7145
     7.2848   7.9788   8.9905   9.1946   9.3006  10.1147  13.4793  13.9208
    14.1187  15.1157

          k =-0.1500 0.4500 0.3500 (  5079 PWs)   bands (ev):

   -45.9084 -22.4469 -22.1849 -22.1522  -6.3762  -6.1569  -5.8279  -5.1498
    -5.1148  -5.0170  -4.9830  -4.7776   3.0119   5.8505   6.3022   6.7871
     7.3309   8.0780   8.5085   9.0402   9.4162   9.9479  13.4951  14.3378
    14.4714  15.4798

          k = 0.4500 0.1500 0.3500 (  5079 PWs)   bands (ev):

   -45.9085 -22.3989 -22.1953 -22.1852  -6.7532  -5.8503  -5.8042  -5.1105
    -5.0976  -5.0002  -4.9540  -4.9239   3.1103   6.3338   6.3910   6.5302
     7.1952   8.0232   8.9163   9.0941   9.2122  10.2591  13.7095  13.9205
    14.2506  15.2368

          k = 0.4500 0.1500 0.4500 (  5073 PWs)   bands (ev):

   -45.9082 -22.3985 -22.1949 -22.1948  -6.7570  -5.7962  -5.7842  -5.1034
    -5.0817  -4.9826  -4.9707  -4.8875   3.0808   6.2444   6.3488   6.3975
     7.0276   8.0629   8.7213   9.1030   9.1057  10.4495  13.9460  14.0517
    14.2208  15.5499

          k =-0.2500 0.3500 0.2500 (  5072 PWs)   bands (ev):

   -45.9087 -22.4361 -22.1691 -22.1689  -6.4996  -6.1075  -5.9061  -5.1408
    -5.1170  -5.0125  -4.9093  -4.8449   3.2134   5.9729   6.2466   6.6389
     7.6623   7.7118   8.5834   9.5049   9.5907   9.8203  13.2161  14.1557
    14.2097  15.2046

          k =-0.2500 0.4500 0.2500 (  5073 PWs)   bands (ev):

   -45.9084 -22.4469 -22.1686 -22.1684  -6.3536  -6.1595  -5.9168  -5.1419
    -5.1101  -4.9760  -4.9076  -4.8267   3.1504   5.8313   6.0018   6.6560
     7.6072   7.7246   8.4435   9.4823   9.5314   9.8526  13.3301  14.2956
    14.3976  15.4501

          k = 0.3500 0.2500 0.3500 (  5057 PWs)   bands (ev):

   -45.9083 -22.4170 -22.1849 -22.1847  -6.6074  -5.9804  -5.8905  -5.1065
    -5.0921  -4.9704  -4.8768  -4.8424   3.3151   5.9830   6.0784   6.4887
     7.2983   7.5024   8.5149   9.4567   9.5299  10.1269  13.4724  14.0433
    14.2065  15.4301

          k =-0.2500 0.4500 0.3500 (  5063 PWs)   bands (ev):

   -45.9081 -22.4460 -22.1842 -22.1679  -6.3207  -6.1545  -5.9250  -5.1244
    -5.0760  -4.9680  -4.8590  -4.7482   3.2528   5.6845   5.9938   6.3622
     7.1396   7.6559   8.1219   9.3204   9.7956   9.9183  13.6131  14.3166
    14.4173  15.7488

          k = 0.4500 0.2500 0.3500 (  5063 PWs)   bands (ev):

   -45.9081 -22.4165 -22.1945 -22.1844  -6.6019  -5.9527  -5.8821  -5.0957
    -5.0814  -4.9272  -4.8566  -4.8372   3.3391   5.9372   5.9693   6.3301
     7.1656   7.4933   8.2040   9.4886   9.5300  10.2535  13.7702  13.9920
    14.3228  15.6687

          k = 0.4500 0.2500 0.4500 (  5070 PWs)   bands (ev):

   -45.9079 -22.4160 -22.1941 -22.1940  -6.6111  -5.9042  -5.8924  -5.0782
    -5.0769  -4.8727  -4.8315  -4.8289   3.4024   5.8539   5.8545   6.2015
     7.0333   7.4282   7.8259   9.5391   9.5495  10.4416  14.0020  14.1125
    14.3087  15.9868

          k =-0.3500 0.4500 0.3500 (  5056 PWs)   bands (ev):

   -45.9078 -22.4452 -22.1836 -22.1835  -6.3239  -6.1033  -5.9873  -5.1013
    -5.0521  -4.9126  -4.7566  -4.7062   3.5479   5.4626   5.9078   5.9837
     6.9073   7.3136   7.4470   9.6813   9.8248  10.1593  13.8560  14.3532
    14.4383  16.0619

          k = 0.4500 0.3500 0.4500 (  5051 PWs)   bands (ev):

   -45.9075 -22.4335 -22.1933 -22.1933  -6.4622  -5.9902  -5.9776  -5.0761
    -5.0503  -4.8403  -4.7145  -4.7079   3.8447   5.4697   5.5029   6.0073
     6.8543   6.9844   7.0397   9.8238   9.8369  10.4343  14.1786  14.3012
    14.3796  16.4085

     the Fermi energy is    10.4965 ev

!    total energy              =    -364.92640890 Ry
     Harris-Foulkes estimate   =    -364.92640890 Ry
     estimated scf accuracy    <          3.8E-09 Ry

     The total energy is the sum of the following terms:

     one-electron contribution =     -83.84625951 Ry
     hartree contribution      =      71.35834930 Ry
     xc contribution           =     -85.85005031 Ry
     ewald contribution        =    -266.59398146 Ry
     smearing contrib. (-TS)   =       0.00553308 Ry

     convergence has been achieved in   9 iterations

     Forces acting on atoms (cartesian axes, Ry/au):

     atom    1 type  1   force =     0.00000000   -0.03879500    0.00000000
     atom    2 type  2   force =     0.00000000    0.14057612    0.00000000
     atom    3 type  3   force =     0.00000000   -0.03382387    0.00000000
     atom    4 type  3   force =     0.00000000   -0.03413339    0.00000000
     atom    5 type  3   force =     0.00000000   -0.03382387    0.00000000

     Total force =     0.058764     Total SCF correction =     0.000042


     Computing stress (Cartesian axis) and pressure

          total   stress  (Ry/bohr**3)                   (kbar)     P=   37.51
   0.00007085   0.00000000   0.00000000         10.42      0.00      0.00
   0.00000000   0.00062327   0.00000000          0.00     91.69      0.00
   0.00000000   0.00000000   0.00007085          0.00      0.00     10.42


     number of scf cycles    =   2
     number of bfgs steps    =   1

     energy   old            =    -364.8955570814 Ry
     energy   new            =    -364.9264088981 Ry

     CASE: energy  _new < energy  _old

     new trust radius        =       0.0521048060 bohr
     new conv_thr            =       0.0000000034 Ry


ATOMIC_POSITIONS (crystal)
Pb       0.000000000   0.000000000   0.000000000    0   0   0
Ti       0.500000000   0.400000000   0.500000000    0   0   0
O        0.500000000   0.491473154   0.000000000
O        0.500000000  -0.038532171   0.500000000
O        0.000000000   0.491473154   0.500000000



     Writing output data file PbTiO3.save/
     NEW-OLD atomic charge density approx. for the potential

     Check: negative core charge=   -0.000006

     total cpu time spent up to now is      528.3 secs

     Self-consistent Calculation

     iteration #  1     ecut=    80.00 Ry     beta= 0.70
     Davidson diagonalization with overlap
     ethr =  1.00E-06,  avg # of iterations =  5.0

     total cpu time spent up to now is      563.0 secs

     total energy              =    -364.92989591 Ry
     Harris-Foulkes estimate   =    -364.93060919 Ry
     estimated scf accuracy    <       0.00106952 Ry

     iteration #  2     ecut=    80.00 Ry     beta= 0.70
     Davidson diagonalization with overlap
     ethr =  2.43E-06,  avg # of iterations =  4.5

     total cpu time spent up to now is      590.5 secs

     total energy              =    -364.92957788 Ry
     Harris-Foulkes estimate   =    -364.93094050 Ry
     estimated scf accuracy    <       0.00369969 Ry

     iteration #  3     ecut=    80.00 Ry     beta= 0.70
     Davidson diagonalization with overlap
     ethr =  2.43E-06,  avg # of iterations =  4.1

     total cpu time spent up to now is      616.1 secs

     total energy              =    -364.93028166 Ry
     Harris-Foulkes estimate   =    -364.93034269 Ry
     estimated scf accuracy    <       0.00019303 Ry

     iteration #  4     ecut=    80.00 Ry     beta= 0.70
     Davidson diagonalization with overlap
     ethr =  4.39E-07,  avg # of iterations =  2.9

     total cpu time spent up to now is      637.1 secs

     total energy              =    -364.93030527 Ry
     Harris-Foulkes estimate   =    -364.93031399 Ry
     estimated scf accuracy    <       0.00001762 Ry

     iteration #  5     ecut=    80.00 Ry     beta= 0.70
     Davidson diagonalization with overlap
     ethr =  4.00E-08,  avg # of iterations =  3.1

     total cpu time spent up to now is      659.7 secs

     total energy              =    -364.93030959 Ry
     Harris-Foulkes estimate   =    -364.93031206 Ry
     estimated scf accuracy    <       0.00000625 Ry

     iteration #  6     ecut=    80.00 Ry     beta= 0.70
     Davidson diagonalization with overlap
     ethr =  1.42E-08,  avg # of iterations =  2.9

     total cpu time spent up to now is      680.9 secs

     total energy              =    -364.93031086 Ry
     Harris-Foulkes estimate   =    -364.93031099 Ry
     estimated scf accuracy    <       0.00000033 Ry

     iteration #  7     ecut=    80.00 Ry     beta= 0.70
     Davidson diagonalization with overlap
     ethr =  7.51E-10,  avg # of iterations =  2.9

     total cpu time spent up to now is      702.9 secs

     total energy              =    -364.93031094 Ry
     Harris-Foulkes estimate   =    -364.93031094 Ry
     estimated scf accuracy    <          6.2E-09 Ry

     iteration #  8     ecut=    80.00 Ry     beta= 0.70
     Davidson diagonalization with overlap
     ethr =  1.41E-11,  avg # of iterations =  3.9

     total cpu time spent up to now is      729.8 secs

     End of self-consistent calculation

          k = 0.0500 0.0500 0.0500 (  5047 PWs)   bands (ev):

   -45.9734 -22.3976 -22.2132 -22.2132  -7.2624  -6.2143  -6.0335  -5.1192
    -5.0744  -5.0744  -4.9365  -4.8917   4.3530   6.7776   6.8231   7.0891
     8.3563   8.3868   9.0582   9.0670   9.4968   9.5688  12.5525  13.5908
    13.6338  14.8826

          k = 0.0500 0.0500 0.1500 (  5074 PWs)   bands (ev):

   -45.9732 -22.3972 -22.2232 -22.2128  -7.1894  -6.1795  -6.0087  -5.1265
    -5.0838  -5.0741  -4.9608  -4.8977   4.0721   6.8374   6.9164   7.2542
     8.2358   8.4040   8.9761   9.0757   9.3202   9.5944  12.8438  13.4145
    13.6223  15.1343

          k = 0.0500 0.0500 0.2500 (  5093 PWs)   bands (ev):

   -45.9728 -22.3965 -22.2393 -22.2123  -7.0672  -6.1171  -5.9713  -5.1379
    -5.1008  -5.0735  -5.0101  -4.9014   3.7141   6.8800   7.0307   7.3092
     8.2903   8.3791   8.8572   8.9979   9.1915   9.6177  13.2564  13.4942
    13.6230  14.9340

          k = 0.0500 0.0500 0.3500 (  5090 PWs)   bands (ev):

   -45.9725 -22.3958 -22.2554 -22.2117  -6.9393  -6.0417  -5.9410  -5.1496
    -5.1259  -5.0730  -5.0594  -4.9056   3.4265   6.6774   7.2411   7.4727
     8.1523   8.3530   8.6801   8.8262   9.2150   9.9478  13.5754  13.6490
    13.7771  14.0981

          k = 0.0500 0.0500 0.4500 (  5073 PWs)   bands (ev):

   -45.9722 -22.3953 -22.2653 -22.2113  -6.8568  -5.9763  -5.9371  -5.1627
    -5.1481  -5.0825  -5.0726  -4.9095   3.2730   6.4986   7.4967   7.7111
     7.8987   8.1269   8.6115   8.7252   9.2573  10.3735  13.2659  13.6794
    13.8462  14.0766

          k = 0.0500 0.1500 0.1500 (  5079 PWs)   bands (ev):

   -45.9729 -22.4082 -22.2227 -22.2124  -7.0864  -6.1677  -5.9787  -5.1260
    -5.0954  -5.0810  -4.9513  -4.9225   3.8503   6.7769   6.8662   7.3329
     8.1288   8.2972   8.8540   9.1080   9.3741   9.6851  12.8410  13.5962
    13.8020  15.1806

          k = 0.0500 0.1500 0.2500 (  5077 PWs)   bands (ev):

   -45.9726 -22.4075 -22.2388 -22.2118  -6.9682  -6.1122  -5.9524  -5.1380
    -5.1120  -5.0808  -4.9786  -4.9164   3.5657   6.7721   7.0007   7.2984
     8.1316   8.2644   8.7194   9.0320   9.1818   9.8106  13.2445  13.6541
    13.7998  14.9648

          k = 0.0500 0.1500 0.3500 (  5080 PWs)   bands (ev):

   -45.9722 -22.4067 -22.2548 -22.2113  -6.8454  -6.0502  -5.9305  -5.1500
    -5.1301  -5.0805  -4.9990  -4.9196   3.3235   6.6339   7.1841   7.3203
     7.9707   8.2308   8.7056   8.8402   9.1384  10.0185  13.5907  13.7786
    13.9021  14.2585

          k = 0.0500 0.1500 0.4500 (  5079 PWs)   bands (ev):

   -45.9720 -22.4062 -22.2647 -22.2109  -6.7669  -6.0057  -5.9218  -5.1561
    -5.1464  -5.0803  -5.0038  -4.9282   3.1904   6.4808   7.3686   7.4671
     7.7257   8.0924   8.6401   8.9276   9.0796  10.1993  13.5920  13.8147
    13.9088  14.1397

          k = 0.0500 0.2500 0.2500 (  5076 PWs)   bands (ev):

   -45.9722 -22.4252 -22.2380 -22.2111  -6.7996  -6.1155  -5.9106  -5.1378
    -5.1228  -5.0885  -4.9642  -4.9199   3.3393   6.5691   6.9506   7.1586
     7.9381   8.1183   8.5527   9.1264   9.3134  10.0057  13.2197  13.8924
    14.0789  14.9343

          k = 0.0500 0.2500 0.3500 (  5080 PWs)   bands (ev):

   -45.9719 -22.4243 -22.2540 -22.2106  -6.6914  -6.0808  -5.8827  -5.1479
    -5.1284  -5.0898  -4.9723  -4.8965   3.1592   6.4943   7.0212   7.1470
     7.7586   8.1242   8.4491   8.8711   9.4061   9.9929  13.5496  14.0349
    14.0756  14.5925

          k = 0.0500 0.2500 0.4500 (  5084 PWs)   bands (ev):

   -45.9717 -22.4238 -22.2638 -22.2102  -6.6250  -6.0633  -5.8572  -5.1498
    -5.1397  -5.0908  -4.9674  -4.8904   3.0569   6.3957   7.0428   7.2933
     7.4688   8.1996   8.4269   8.7755   9.4376   9.9259  13.7425  14.0224
    14.2189  14.3866

          k = 0.0500 0.3500 0.3500 (  5079 PWs)   bands (ev):

   -45.9715 -22.4418 -22.2531 -22.2099  -6.5400  -6.1021  -5.8208  -5.1469
    -5.1338  -5.0925  -4.9984  -4.8328   2.9993   6.1771   6.9041   7.0197
     7.6986   7.9350   8.4106   8.9468   9.4264  10.0176  13.5033  14.1742
    14.3643  14.9962

          k = 0.0500 0.3500 0.4500 (  5079 PWs)   bands (ev):

   -45.9713 -22.4412 -22.2629 -22.2095  -6.5012  -6.0839  -5.7830  -5.1478
    -5.1377  -5.0946  -5.0059  -4.7961   2.9245   6.1314   6.7997   7.1524
     7.4436   8.0723   8.3669   8.8016   9.3067  10.0004  13.6720  14.3091
    14.3620  14.9323

          k = 0.0500 0.4500 0.4500 (  5100 PWs)   bands (ev):

   -45.9711 -22.4520 -22.2624 -22.2090  -6.4475  -6.0650  -5.7312  -5.1487
    -5.1427  -5.0940  -5.0303  -4.7427   2.8436   5.8792   6.7479   7.0363
     7.5285   7.9055   8.4593   8.8219   9.0244  10.1649  13.6225  14.3717
    14.5523  15.3285

          k = 0.1500 0.1500 0.1500 (  5095 PWs)   bands (ev):

   -45.9727 -22.4078 -22.2225 -22.2222  -7.0209  -6.1408  -5.9604  -5.1312
    -5.1008  -5.0834  -4.9541  -4.9198   3.7098   6.7149   6.8320   7.4080
     8.0227   8.2759   8.7149   9.1751   9.5301   9.5978  13.0323  13.5579
    13.6653  15.6056

          k = 0.1500 0.1500 0.2500 (  5084 PWs)   bands (ev):

   -45.9724 -22.4070 -22.2384 -22.2217  -6.9144  -6.0928  -5.9326  -5.1375
    -5.1075  -5.0825  -4.9675  -4.9160   3.4940   6.6902   6.8234   7.2960
     7.8905   8.1781   8.8007   9.2059   9.3551   9.7600  13.2847  13.5960
    13.6880  15.0559

          k = 0.1500 0.1500 0.3500 (  5082 PWs)   bands (ev):

   -45.9720 -22.4063 -22.2544 -22.2211  -6.8081  -6.0362  -5.9092  -5.1431
    -5.1036  -5.0824  -4.9851  -4.9194   3.2945   6.6045   6.8613   7.1572
     7.7539   8.1847   8.8528   9.0628   9.2967   9.9373  13.4089  13.6798
    13.9289  14.5345

          k = 0.1500 0.1500 0.4500 (  5084 PWs)   bands (ev):

   -45.9718 -22.4058 -22.2642 -22.2207  -6.7431  -5.9932  -5.8996  -5.1441
    -5.0957  -5.0860  -4.9941  -4.9285   3.1798   6.4789   6.9056   7.1155
     7.6922   8.2705   8.6308   9.1597   9.2439  10.0236  13.4066  13.8004
    14.1475  14.2578

          k = 0.1500 0.2500 0.2500 (  5081 PWs)   bands (ev):

   -45.9720 -22.4247 -22.2376 -22.2210  -6.7461  -6.1015  -5.9153  -5.1370
    -5.1238  -5.0690  -4.9463  -4.9035   3.3354   6.4736   6.6496   7.0689
     7.7865   8.0875   8.6512   9.3114   9.4546   9.8826  13.1992  13.8524
    13.9015  14.9466

          k = 0.1500 0.2500 0.3500 (  5080 PWs)   bands (ev):

   -45.9717 -22.4239 -22.2535 -22.2204  -6.6502  -6.0762  -5.8922  -5.1381
    -5.1103  -5.0678  -4.9457  -4.8828   3.2049   6.4347   6.6448   6.8896
     7.4513   8.1543   8.8095   9.1183   9.4243   9.8468  13.4090  13.8595
    14.0541  14.8392

          k = 0.1500 0.2500 0.4500 (  5077 PWs)   bands (ev):

   -45.9715 -22.4233 -22.2634 -22.2200  -6.5935  -6.0660  -5.8680  -5.1343
    -5.0941  -5.0776  -4.9381  -4.8789   3.1252   6.3827   6.6837   6.7665
     7.2743   8.2609   8.8791   8.9844   9.3625   9.7725  13.6412  13.8069
    14.2271  14.7618

          k = 0.1500 0.3500 0.3500 (  5081 PWs)   bands (ev):

[...]
    -4.9666  -4.8901  -4.7737  -4.6940   3.3683   6.3726   6.4290   6.9637
     7.2427   7.3344   9.2780   9.3226   9.3738   9.6260  13.2629  13.5067
    13.5923  15.1418

          k = 0.2500 0.2500 0.3500 (  5072 PWs)   bands (ev):

   -46.2766 -22.5818 -22.5636 -22.5534  -6.6226  -6.2441  -6.1139  -4.9650
    -4.9496  -4.8536  -4.7443  -4.6785   3.2584   6.1633   6.2965   6.5368
     7.1106   7.2865   8.9983   9.4061   9.5063   9.7125  13.3199  13.6557
    13.8254  15.3319

          k = 0.2500 0.2500 0.4500 (  5073 PWs)   bands (ev):

   -46.2764 -22.5925 -22.5632 -22.5530  -6.5605  -6.1924  -6.1387  -4.9615
    -4.9379  -4.8233  -4.7274  -4.6760   3.1840   6.0121   6.0602   6.4529
     7.0872   7.3244   8.7708   9.4125   9.5394   9.7598  13.3510  13.8154
    14.0253  15.6188

          k = 0.2500 0.3500 0.3500 (  5057 PWs)   bands (ev):

   -46.2763 -22.5810 -22.5702 -22.5629  -6.5733  -6.2519  -6.0297  -4.9553
    -4.9338  -4.8211  -4.7242  -4.6376   3.3117   5.9551   6.1196   6.3601
     6.6905   7.1012   8.6944   9.4248   9.5646   9.9155  13.4506  13.7504
    14.0211  15.6045

          k = 0.2500 0.3500 0.4500 (  5063 PWs)   bands (ev):

   -46.2761 -22.5917 -22.5697 -22.5625  -6.5415  -6.1942  -6.0462  -4.9498
    -4.9183  -4.7955  -4.7051  -4.6120   3.2786   5.7972   6.0089   6.1445
     6.6452   7.1058   8.3773   9.4236   9.6033  10.0247  13.6501  13.7871
    14.1684  15.9804

          k = 0.2500 0.4500 0.4500 (  5070 PWs)   bands (ev):

   -46.2758 -22.5912 -22.5800 -22.5621  -6.5441  -6.1969  -5.9703  -4.9460
    -4.9016  -4.7751  -4.6929  -4.5734   3.3283   5.7222   5.9363   6.0059
     6.3127   7.0975   8.0392   9.4455   9.6030  10.1818  13.7486  13.9166
    14.3015  16.2482

          k = 0.3500 0.3500 0.3500 (  5055 PWs)   bands (ev):

   -46.2759 -22.5804 -22.5802 -22.5695  -6.4357  -6.2689  -6.0785  -4.9283
    -4.9241  -4.7510  -4.6565  -4.6091   3.3855   5.7010   5.8209   6.2479
     6.5644   6.6488   8.1045   9.7104   9.8375   9.9587  13.6228  13.9324
    14.0089  15.9821

          k = 0.3500 0.3500 0.4500 (  5056 PWs)   bands (ev):

   -46.2757 -22.5909 -22.5798 -22.5690  -6.3848  -6.2372  -6.1122  -4.9214
    -4.9089  -4.7008  -4.6256  -4.5863   3.4115   5.5472   5.7636   5.9779
     6.4789   6.6330   7.6704   9.8225   9.9001  10.0365  13.8320  13.9508
    14.1340  16.3820

          k = 0.3500 0.4500 0.4500 (  5051 PWs)   bands (ev):

   -46.2755 -22.5905 -22.5795 -22.5792  -6.3937  -6.2564  -6.0360  -4.9146
    -4.8964  -4.6740  -4.5906  -4.5434   3.5979   5.3759   5.5699   5.9017
     6.2930   6.5080   7.2214   9.8462  10.0014  10.1846  13.9168  14.0739
    14.2591  16.6928

          k = 0.4500 0.4500 0.4500 (  5034 PWs)   bands (ev):

   -46.2753 -22.5900 -22.5900 -22.5789  -6.3028  -6.2866  -6.0734  -4.8948
    -4.8942  -4.6124  -4.5302  -4.5225   3.7724   5.3118   5.3597   5.7797
     6.2430   6.3047   6.6088  10.0246  10.1764  10.1895  14.0903  14.2192
    14.2419  17.0753

          k =-0.0500 0.1500 0.0500 (  5074 PWs)   bands (ev):

   -46.2784 -22.5395 -22.5377 -22.5376  -7.2942  -6.3942  -6.1800  -4.9543
    -4.9531  -4.9409  -4.8401  -4.7459   4.2362   6.7613   6.7730   7.2565
     8.7233   8.7680   9.1214   9.2263   9.3676   9.4163  12.2744  12.7846
    12.7854  14.4303

          k =-0.0500 0.2500 0.0500 (  5093 PWs)   bands (ev):

   -46.2781 -22.5565 -22.5370 -22.5370  -7.1721  -6.3555  -6.1182  -4.9669
    -4.9617  -4.9400  -4.8241  -4.7888   3.9113   6.8336   6.8933   7.0788
     8.3845   8.4593   9.0768   9.1618   9.3715   9.5808  12.2776  13.2412
    13.2472  14.4312

          k =-0.0500 0.3500 0.0500 (  5090 PWs)   bands (ev):

   -46.2777 -22.5734 -22.5364 -22.5364  -7.0485  -6.3146  -6.0532  -4.9794
    -4.9700  -4.9391  -4.8340  -4.8078   3.6535   6.4695   7.0704   7.1474
     8.0387   8.1097   9.0143   9.2368   9.4031  10.0170  12.2799  13.6654
    13.6702  14.2811

          k =-0.0500 0.4500 0.0500 (  5073 PWs)   bands (ev):

   -46.2775 -22.5839 -22.5360 -22.5360  -6.9714  -6.2880  -6.0111  -4.9872
    -4.9751  -4.9385  -4.8633  -4.7976   3.5207   6.1382   7.2506   7.3589
     7.7681   7.8033   8.9732   9.2856   9.4289  10.4483  12.2792  13.5819
    13.9184  13.9308

          k = 0.1500 0.0500 0.1500 (  5079 PWs)   bands (ev):

   -46.2782 -22.5488 -22.5484 -22.5281  -7.1917  -6.3625  -6.1907  -4.9759
    -4.9550  -4.9438  -4.8393  -4.7181   3.9453   6.6997   6.9098   7.3790
     8.3779   8.5101   9.0709   9.2164   9.3299   9.4741  12.7227  12.7802
    12.8465  14.8367

          k =-0.0500 0.2500 0.1500 (  5077 PWs)   bands (ev):

   -46.2779 -22.5560 -22.5479 -22.5366  -7.0928  -6.3395  -6.0982  -4.9708
    -4.9592  -4.9466  -4.8298  -4.7636   3.7455   6.7266   6.9306   7.1808
     8.0972   8.3732   8.7653   9.1538   9.3144   9.7094  12.6000  13.2446
    13.3884  14.7578

          k = 0.2500 0.0500 0.1500 (  5077 PWs)   bands (ev):

   -46.2778 -22.5662 -22.5479 -22.5274  -7.0450  -6.3166  -6.1780  -4.9947
    -4.9551  -4.9400  -4.8296  -4.7222   3.6271   6.6492   6.9498   7.2909
     8.0607   8.2995   8.8730   9.2141   9.3362   9.6787  12.7425  13.1936
    13.2395  14.8871

          k =-0.0500 0.3500 0.1500 (  5080 PWs)   bands (ev):

   -46.2775 -22.5729 -22.5473 -22.5360  -6.9790  -6.3056  -6.0280  -4.9818
    -4.9587  -4.9463  -4.8205  -4.7907   3.5279   6.4528   7.0001   7.1582
     7.7959   8.1341   8.7174   9.1796   9.2907  10.0495  12.5957  13.6675
    13.7618  14.4966

          k = 0.3500 0.0500 0.1500 (  5080 PWs)   bands (ev):

   -46.2775 -22.5838 -22.5472 -22.5267  -6.8931  -6.2645  -6.1712  -5.0079
    -4.9506  -4.9342  -4.8221  -4.7361   3.3633   6.3182   6.9843   7.3116
     7.7973   8.1513   8.7682   9.1603   9.3892  10.0178  12.7292  13.6133
    13.6262  14.7584

          k =-0.0500 0.4500 0.1500 (  5079 PWs)   bands (ev):

   -46.2773 -22.5833 -22.5469 -22.5356  -6.9101  -6.2833  -5.9810  -4.9888
    -4.9584  -4.9460  -4.8174  -4.8050   3.4109   6.1425   7.1149   7.2729
     7.6211   7.8804   8.7605   9.2064   9.2624  10.3089  12.5854  13.9021
    13.9270  14.0951

          k = 0.4500 0.0500 0.1500 (  5079 PWs)   bands (ev):

   -46.2773 -22.5945 -22.5468 -22.5263  -6.7968  -6.2191  -6.1799  -5.0131
    -4.9474  -4.9282  -4.8127  -4.7550   3.2226   6.0087   7.0627   7.3724
     7.7221   7.9185   8.7873   9.1129   9.4277  10.2829  12.7089  13.8610
    13.8736  14.3082

          k = 0.2500 0.0500 0.2500 (  5076 PWs)   bands (ev):

   -46.2775 -22.5657 -22.5652 -22.5267  -6.9042  -6.2716  -6.1827  -4.9981
    -4.9569  -4.9220  -4.8068  -4.7268   3.3723   6.6076   6.8737   7.2003
     7.8935   7.9302   8.7880   9.0955   9.4186   9.8045  13.1243  13.2304
    13.5247  15.0625

          k =-0.0500 0.3500 0.2500 (  5080 PWs)   bands (ev):

   -46.2772 -22.5721 -22.5648 -22.5353  -6.8816  -6.2693  -5.9846  -4.9794
    -4.9604  -4.9432  -4.8359  -4.7302   3.3326   6.4408   6.7549   7.1394
     7.6597   7.9559   8.3708   8.8787   9.6079   9.9548  13.0602  13.6637
    13.9525  14.8043

          k = 0.3500 0.0500 0.2500 (  5080 PWs)   bands (ev):

   -46.2771 -22.5829 -22.5647 -22.5261  -6.7639  -6.2242  -6.1840  -4.9994
    -4.9503  -4.8979  -4.7898  -4.7412   3.1441   6.3261   6.7784   7.1528
     7.6353   7.9946   8.5870   9.0804   9.5001   9.9091  13.1488  13.6035
    13.8271  14.9722

          k =-0.0500 0.4500 0.2500 (  5084 PWs)   bands (ev):

   -46.2770 -22.5825 -22.5644 -22.5349  -6.8338  -6.2446  -5.9281  -4.9856
    -4.9582  -4.9378  -4.8374  -4.7288   3.2364   6.1489   6.7820   7.1439
     7.5792   7.9433   8.2298   8.8896   9.6011  10.0450  13.0523  13.9160
    14.1325  14.6242

          k = 0.4500 0.0500 0.2500 (  5084 PWs)   bands (ev):

   -46.2769 -22.5937 -22.5643 -22.5257  -6.6795  -6.2002  -6.1742  -4.9989
    -4.9443  -4.8731  -4.7811  -4.7610   3.0155   6.0208   6.8480   7.0445
     7.5980   8.0506   8.4302   9.1357   9.4978   9.9597  13.1337  13.8592
    14.0278  14.8275

          k = 0.3500 0.0500 0.3500 (  5079 PWs)   bands (ev):

   -46.2768 -22.5823 -22.5820 -22.5255  -6.6498  -6.1806  -6.1773  -4.9921
    -4.9386  -4.8643  -4.7559  -4.7554   2.9368   6.2913   6.3934   7.1360
     7.4064   8.0202   8.5859   8.8236   9.6904   9.7691  13.5333  13.6226
    14.0567  15.1550

          k =-0.0500 0.4500 0.3500 (  5079 PWs)   bands (ev):

   -46.2766 -22.5818 -22.5816 -22.5343  -6.7918  -6.1594  -5.8720  -4.9838
    -4.9667  -4.9273  -4.8540  -4.6555   3.0671   6.1270   6.3603   7.1624
     7.3972   7.8985   8.1786   8.5864   9.5841  10.0288  13.4936  13.9117
    14.3334  15.1116

          k = 0.4500 0.0500 0.3500 (  5079 PWs)   bands (ev):

   -46.2766 -22.5928 -22.5816 -22.5251  -6.5936  -6.1684  -6.1404  -4.9881
    -4.9262  -4.8352  -4.7770  -4.7349   2.8148   6.0071   6.3976   7.0704
     7.3350   8.1840   8.4040   8.8224   9.4975   9.8980  13.5637  13.8433
    14.2242  15.2409

          k = 0.4500 0.0500 0.4500 (  5100 PWs)   bands (ev):

   -46.2764 -22.5923 -22.5923 -22.5247  -6.5636  -6.1232  -6.1175  -4.9827
    -4.9040  -4.8141  -4.7971  -4.7035   2.6941   5.9010   6.2134   7.1249
     7.1584   8.3286   8.4820   8.5903   9.2079  10.0566  13.8244  13.8386
    14.3722  15.3807

          k =-0.1500 0.2500 0.1500 (  5084 PWs)   bands (ev):

   -46.2776 -22.5556 -22.5476 -22.5474  -7.0109  -6.3266  -6.0896  -4.9769
    -4.9631  -4.9370  -4.8201  -4.7437   3.6370   6.6894   6.7380   7.2248
     7.8912   8.0612   8.8890   9.1699   9.4054   9.6080  12.8148  13.3708
    13.3718  15.2251

          k =-0.1500 0.3500 0.1500 (  5082 PWs)   bands (ev):

   -46.2773 -22.5725 -22.5470 -22.5468  -6.9040  -6.3039  -6.0160  -4.9873
    -4.9555  -4.9266  -4.8125  -4.7632   3.4628   6.4466   6.7568   7.0003
     7.6490   8.1002   8.5874   9.2174   9.4146   9.9123  12.7615  13.7316
    13.7484  14.7088

          k =-0.1500 0.4500 0.1500 (  5084 PWs)   bands (ev):

   -46.2771 -22.5828 -22.5465 -22.5464  -6.8407  -6.2896  -5.9649  -4.9924
    -4.9521  -4.9156  -4.8106  -4.7769   3.3645   6.1465   6.7651   7.0238
     7.5237   8.1824   8.3795   9.2481   9.4039  10.0853  12.7059  13.9526
    13.9867  14.4280

          k = 0.2500 0.1500 0.2500 (  5081 PWs)   bands (ev):

   -46.2773 -22.5653 -22.5648 -22.5372  -6.8400  -6.2749  -6.1540  -4.9874
    -4.9619  -4.9112  -4.7931  -4.7131   3.3764   6.5558   6.6601   7.0220
     7.5319   7.8591   9.0970   9.1206   9.4820   9.6200  13.2251  13.3511
    13.4740  15.2044

          k =-0.1500 0.3500 0.2500 (  5080 PWs)   bands (ev):

   -46.2770 -22.5717 -22.5644 -22.5462  -6.7972  -6.2810  -5.9955  -4.9817
    -4.9591  -4.9015  -4.8062  -4.7122   3.3440   6.4086   6.6031   6.6922
     7.3144   7.7824   8.7923   9.0903   9.6257   9.7411  13.0802  13.6841
    13.8944  14.9995

          k = 0.3500 0.1500 0.2500 (  5080 PWs)   bands (ev):

   -46.2769 -22.5825 -22.5643 -22.5366  -6.7023  -6.2332  -6.1653  -4.9859
    -4.9518  -4.8808  -4.7711  -4.7179   3.1907   6.3168   6.5690   6.7745
     7.3202   7.8989   8.8283   9.2524   9.5473   9.6976  13.1959  13.6478
    13.7627  15.1394

          k =-0.1500 0.4500 0.2500 (  5077 PWs)   bands (ev):

   -46.2767 -22.5820 -22.5639 -22.5458  -6.7511  -6.2700  -5.9369  -4.9841
    -4.9536  -4.8805  -4.8121  -4.7100   3.2737   6.1500   6.5469   6.6313
     7.2345   7.8409   8.6134   9.1335   9.5970   9.8052  13.0361  13.9186
    14.0951  14.9808

          k = 0.4500 0.1500 0.2500 (  5077 PWs)   bands (ev):

   -46.2767 -22.5932 -22.5638 -22.5361  -6.6217  -6.2003  -6.1724  -4.9837
    -4.9440  -4.8510  -4.7552  -4.7357   3.0808   6.0231   6.4892   6.7635
     7.2689   7.9927   8.6204   9.3319   9.5343   9.7130  13.1614  13.8716
    13.9714  15.1897

          k = 0.3500 0.1500 0.3500 (  5081 PWs)   bands (ev):

   -46.2766 -22.5818 -22.5815 -22.5359  -6.5775  -6.2004  -6.1816  -4.9765
    -4.9362  -4.8352  -4.7357  -4.7201   3.0340   6.2855   6.3430   6.5655
     6.9332   7.8895   8.9102   9.1022   9.4680   9.7784  13.4902  13.6591
    13.9664  15.3877

          k =-0.1500 0.4500 0.3500 (  5079 PWs)   bands (ev):

   -46.2764 -22.5813 -22.5812 -22.5451  -6.7021  -6.1995  -5.9090  -4.9773
    -4.9404  -4.8675  -4.8090  -4.6406   3.1666   6.1270   6.2722   6.4861
     6.7836   7.7806   8.7412   8.9631   9.2697  10.0194  13.4398  13.8846
    14.2512  15.4774

          k = 0.4500 0.1500 0.3500 (  5079 PWs)   bands (ev):

   -46.2764 -22.5924 -22.5812 -22.5355  -6.5146  -6.1911  -6.1633  -4.9716
    -4.9222  -4.7936  -4.7381  -4.7126   2.9349   6.0048   6.3567   6.4832
     6.8307   7.9384   8.7481   9.1670   9.2841   9.8907  13.5446  13.8334
    14.1318  15.6421

          k = 0.4500 0.1500 0.4500 (  5073 PWs)   bands (ev):

   -46.2762 -22.5919 -22.5918 -22.5351  -6.4756  -6.1579  -6.1544  -4.9658
    -4.9011  -4.7591  -4.7419  -4.6878   2.8392   5.8954   6.2074   6.5351
     6.5873   7.9530   8.6591   9.0826   9.1209  10.0518  13.7972  13.8251
    14.2698  15.9322

          k =-0.2500 0.3500 0.2500 (  5072 PWs)   bands (ev):

   -46.2766 -22.5709 -22.5638 -22.5635  -6.6696  -6.2864  -6.0118  -4.9680
    -4.9515  -4.8587  -4.7612  -4.6778   3.3421   6.2304   6.2580   6.5541
     7.1053   7.1743   9.0336   9.3466   9.4861   9.7500  13.2066  13.7184
    13.8864  15.2653

          k =-0.2500 0.4500 0.2500 (  5073 PWs)   bands (ev):

   -46.2764 -22.5813 -22.5634 -22.5631  -6.6311  -6.2902  -5.9495  -4.9675
    -4.9417  -4.8277  -4.7624  -4.6691   3.3182   6.1361   6.1419   6.2679
     7.0597   7.1995   8.8311   9.3748   9.4857   9.8030  13.1940  13.9092
    14.0929  15.4546

          k = 0.3500 0.2500 0.3500 (  5057 PWs)   bands (ev):

   -46.2763 -22.5811 -22.5808 -22.5527  -6.4839  -6.2357  -6.1552  -4.9504
    -4.9323  -4.7930  -4.6979  -4.6637   3.2027   6.0256   6.1288   6.3066
     6.6341   7.2290   8.6514   9.5470   9.6076   9.8170  13.5001  13.7903
    13.9092  15.6474

          k =-0.2500 0.4500 0.3500 (  5063 PWs)   bands (ev):

   -46.2761 -22.5806 -22.5804 -22.5625  -6.5569  -6.2559  -5.9618  -4.9526
    -4.9201  -4.7940  -4.7174  -4.6125   3.3352   5.8859   5.9871   6.1267
     6.5365   7.0969   8.4107   9.4483   9.5644  10.0259  13.4993  13.9118
    14.1890  15.8867

          k = 0.4500 0.2500 0.3500 (  5063 PWs)   bands (ev):

   -46.2760 -22.5917 -22.5805 -22.5523  -6.4137  -6.2086  -6.1837  -4.9449
    -4.9168  -4.7422  -4.6813  -4.6554   3.1534   5.9169   6.0053   6.1224
     6.5386   7.2366   8.3244   9.5902   9.6387   9.9036  13.6331  13.8685
    14.0755  16.0127

          k = 0.4500 0.2500 0.4500 (  5070 PWs)   bands (ev):

   -46.2758 -22.5912 -22.5911 -22.5519  -6.3377  -6.2087  -6.2026  -4.9385
    -4.8983  -4.6846  -4.6553  -4.6484   3.1146   5.8704   5.9725   5.9815
     6.2513   7.2319   7.9318   9.6480   9.6528  10.0447  13.8526  13.8967
    14.1839  16.3469

          k =-0.3500 0.4500 0.3500 (  5056 PWs)   bands (ev):

   -46.2757 -22.5800 -22.5797 -22.5797  -6.4263  -6.2886  -6.0087  -4.9259
    -4.9080  -4.7214  -4.6318  -4.5760   3.5043   5.5665   5.6368   6.0698
     6.4611   6.5505   7.7202   9.7352   9.9280  10.0670  13.7098  14.0232
    14.1867  16.3052

          k = 0.4500 0.3500 0.4500 (  5051 PWs)   bands (ev):

   -46.2755 -22.5905 -22.5904 -22.5686  -6.2829  -6.2581  -6.1574  -4.9111
    -4.8960  -4.6390  -4.5779  -4.5723   3.4720   5.5338   5.5776   5.8487
     6.2420   6.6146   7.1502   9.9979  10.0157  10.0561  14.0167  14.0771
    14.1470  16.7581

     the Fermi energy is    10.3717 ev

!    total energy              =    -364.94860188 Ry
     Harris-Foulkes estimate   =    -364.94860188 Ry
     estimated scf accuracy    <          1.0E-11 Ry

     The total energy is the sum of the following terms:

     one-electron contribution =     -86.85166223 Ry
     hartree contribution      =      72.76179609 Ry
     xc contribution           =     -85.85512147 Ry
     ewald contribution        =    -265.00989295 Ry
     smearing contrib. (-TS)   =       0.00627867 Ry

     convergence has been achieved in   7 iterations

     Forces acting on atoms (cartesian axes, Ry/au):

     atom    1 type  1   force =     0.00000000   -0.02827784    0.00000000
     atom    2 type  2   force =     0.00000000    0.02814691    0.00000000
     atom    3 type  3   force =     0.00000000   -0.00004068    0.00000000
     atom    4 type  3   force =     0.00000000    0.00021230    0.00000000
     atom    5 type  3   force =     0.00000000   -0.00004068    0.00000000

     Total force =     0.000220     Total SCF correction =     0.000003


     Computing stress (Cartesian axis) and pressure

          total   stress  (Ry/bohr**3)                   (kbar)     P=   30.30
   0.00022317   0.00000000   0.00000000         32.83      0.00      0.00
   0.00000000   0.00017165   0.00000000          0.00     25.25      0.00
   0.00000000   0.00000000   0.00022317          0.00      0.00     32.83


     bfgs converged in   9 scf cycles and   8 bfgs steps
     (criteria: energy <  1.0E-04 Ry, force <  1.0E-03 Ry/Bohr)

     End of BFGS Geometry Optimization

     Final energy   =    -364.9486018805 Ry
Begin final coordinates

ATOMIC_POSITIONS (crystal)
Pb       0.000000000   0.000000000   0.000000000    0   0   0
Ti       0.500000000   0.400000000   0.500000000    0   0   0
O        0.500000000   0.415676329   0.000000000
O        0.500000000  -0.072451297   0.500000000
O        0.000000000   0.415676329   0.500000000
End final coordinates



     Writing output data file PbTiO3.save/
 
     init_run     :      9.58s CPU     10.21s WALL (       1 calls)
     electrons    :   1880.68s CPU   1965.48s WALL (       9 calls)
     update_pot   :      2.28s CPU      2.35s WALL (       8 calls)
     forces       :     22.98s CPU     27.40s WALL (       9 calls)
     stress       :     99.12s CPU    110.88s WALL (       9 calls)

     Called by init_run:
     wfcinit      :      7.17s CPU      7.27s WALL (       1 calls)
     potinit      :      0.23s CPU      0.25s WALL (       1 calls)
     hinit0       :      1.31s CPU      1.34s WALL (       1 calls)

     Called by electrons:
     c_bands      :   1502.77s CPU   1515.35s WALL (      80 calls)
     sum_band     :    300.28s CPU    333.84s WALL (      80 calls)
     v_of_rho     :     18.03s CPU     18.83s WALL (      88 calls)
     newd         :     66.40s CPU    107.59s WALL (      88 calls)
     mix_rho      :      1.06s CPU      1.20s WALL (      80 calls)

     Called by c_bands:
     init_us_2    :     40.27s CPU     40.48s WALL (   13425 calls)
     cegterg      :   1390.90s CPU   1402.89s WALL (    6000 calls)

     Called by sum_band:
     sum_band:bec :      0.10s CPU      0.10s WALL (    6000 calls)
     addusdens    :     71.45s CPU    104.03s WALL (      80 calls)

     Called by *egterg:
     h_psi        :   1155.98s CPU   1158.44s WALL (   28852 calls)
     s_psi        :     36.61s CPU     36.77s WALL (   28852 calls)
     g_psi        :     13.83s CPU     13.89s WALL (   22777 calls)
     cdiaghg      :     41.51s CPU     49.71s WALL (   28102 calls)

     Called by h_psi:
     h_psi:pot    :   1151.37s CPU   1153.65s WALL (   28852 calls)
     h_psi:calbec :     36.98s CPU     37.05s WALL (   28852 calls)
     vloc_psi     :   1077.41s CPU   1079.55s WALL (   28852 calls)
     add_vuspsi   :     36.82s CPU     36.91s WALL (   28852 calls)

     General routines
     calbec       :     55.07s CPU     55.19s WALL (   38227 calls)
     fft          :      4.57s CPU      4.59s WALL (    1360 calls)
     ffts         :      0.18s CPU      0.18s WALL (     168 calls)
     fftw         :   1148.56s CPU   1150.84s WALL ( 1068116 calls)
     interpolate  :      0.48s CPU      0.57s WALL (      88 calls)
 
     Parallel routines
 
     PWSCF        :  33m41.96s CPU  35m29.81s WALL

 
   This run was terminated on:   0: 2:55  13May2020            

=------------------------------------------------------------------------------=
   JOB DONE.
=------------------------------------------------------------------------------=
