
     Program PWSCF v.6.4.1 starts on 14May2020 at  7:49: 7 

     This program is part of the open-source Quantum ESPRESSO suite
     for quantum simulation of materials; please cite
         "P. Giannozzi et al., J. Phys.:Condens. Matter 21 395502 (2009);
         "P. Giannozzi et al., J. Phys.:Condens. Matter 29 465901 (2017);
          URL http://www.quantum-espresso.org", 
     in publications or presentations arising from this work. More details at
     http://www.quantum-espresso.org/quote

     Parallel version (MPI), running on     1 processors

     MPI processes distributed on     1 nodes
     Reading input from PTO_7.15_10_0.548.pw.in
Warning: card  &CELL ignored
Warning: card   CELL_DYNAMICS = 'BFGS', ignored
Warning: card  / ignored

     Current dimensions of program PWSCF are:
     Max number of different atomic species (ntypx) = 10
     Max number of k-points (npk) =  40000
     Max angular momentum in pseudopotentials (lmaxx) =  3
     Message from routine read_upf::
     Pseudo file Pb.pbe-dn-rrkjus_psl.0.2.2.UPF has been fixed on the fly.
To avoid this message in the future, permanently fix 
 your pseudo files following these instructions: 
https://gitlab.com/QEF/q-e/blob/master/upftools/how_to_fix_upf.md
     Message from routine read_upf::
     Pseudo file O.pbe-n-rrkjus_psl.0.1.UPF has been fixed on the fly.
To avoid this message in the future, permanently fix 
 your pseudo files following these instructions: 
https://gitlab.com/QEF/q-e/blob/master/upftools/how_to_fix_upf.md
               file Pb.pbe-dn-rrkjus_psl.0.2.2.UPF: wavefunction(s)  6S renormalized

     Subspace diagonalization in iterative solution of the eigenvalue problem:
     a serial algorithm will be used


     G-vector sticks info
     --------------------
     sticks:   dense  smooth     PW     G-vecs:    dense   smooth      PW
     Sum        3249    1305    373               139753    35513    5497



     bravais-lattice index     =            1
     lattice parameter (alat)  =       7.1500  a.u.
     unit-cell volume          =     365.5259 (a.u.)^3
     number of atoms/cell      =            5
     number of atomic types    =            3
     number of electrons       =        44.00
     number of Kohn-Sham states=           26
     kinetic-energy cutoff     =      80.0000  Ry
     charge density cutoff     =     800.0000  Ry
     convergence threshold     =      1.0E-08
     mixing beta               =       0.7000
     number of iterations used =            8  plain     mixing
     Exchange-correlation      = PBE ( 1  4  3  4 0 0)
     nstep                     =           50


     celldm(1)=   7.150000  celldm(2)=   0.000000  celldm(3)=   0.000000
     celldm(4)=   0.000000  celldm(5)=   0.000000  celldm(6)=   0.000000

     crystal axes: (cart. coord. in units of alat)
               a(1) = (   1.000000   0.000000   0.000000 )  
               a(2) = (   0.000000   1.000000   0.000000 )  
               a(3) = (   0.000000   0.000000   1.000000 )  

     reciprocal axes: (cart. coord. in units 2 pi/alat)
               b(1) = (  1.000000  0.000000  0.000000 )  
               b(2) = (  0.000000  1.000000  0.000000 )  
               b(3) = (  0.000000  0.000000  1.000000 )  


     PseudoPot. # 1 for Pb read from file:
     ./Pb.pbe-dn-rrkjus_psl.0.2.2.UPF
     MD5 check sum: 7afc420059c37d6888fc09c0f121e83f
     Pseudo is Ultrasoft + core correction, Zval = 14.0
     Generated using "atomic" code by A. Dal Corso v.5.0.2 svn rev. 9415
     Using radial grid of 1281 points,  6 beta functions with: 
                l(1) =   0
                l(2) =   0
                l(3) =   1
                l(4) =   1
                l(5) =   2
                l(6) =   2
     Q(r) pseudized with 0 coefficients 


     PseudoPot. # 2 for Ti read from file:
     ./Ti.pbe-sp-van_ak.UPF
     MD5 check sum: 8e4df49b7f0d34bbd5052bf3f5ea0213
     Pseudo is Ultrasoft, Zval = 12.0
     Generated by new atomic code, or converted to UPF format
     Using radial grid of  851 points,  6 beta functions with: 
                l(1) =   0
                l(2) =   0
                l(3) =   1
                l(4) =   1
                l(5) =   2
                l(6) =   2
     Q(r) pseudized with  8 coefficients,  rinner =    1.000   1.000   1.000
                                                       1.000   1.000

     PseudoPot. # 3 for O  read from file:
     ./O.pbe-n-rrkjus_psl.0.1.UPF
     MD5 check sum: e057bbcf3229fb5d8c36c0c92f9568b4
     Pseudo is Ultrasoft + core correction, Zval =  6.0
     Generated using "atomic" code by A. Dal Corso v.5.0.2 svn rev. 9415
     Using radial grid of 1095 points,  4 beta functions with: 
                l(1) =   0
                l(2) =   0
                l(3) =   1
                l(4) =   1
     Q(r) pseudized with 0 coefficients 


     atomic species   valence    mass     pseudopotential
        Pb            14.00   207.20000     Pb( 1.00)
        Ti            12.00    47.87000     Ti( 1.00)
        O              6.00    16.00000     O ( 1.00)

      8 Sym. Ops. (no inversion) found



   Cartesian axes

     site n.     atom                  positions (alat units)
         1           Pb  tau(   1) = (   0.0000000   0.0000000   0.0000000  )
         2           Ti  tau(   2) = (   0.5000000   0.5480000   0.5000000  )
         3           O   tau(   3) = (   0.5000000   0.5000000   0.0000000  )
         4           O   tau(   4) = (   0.5000000   0.0000000   0.5000000  )
         5           O   tau(   5) = (   0.0000000   0.5000000   0.5000000  )

     number of k points=    75  Marzari-Vanderbilt smearing, width (Ry)=  0.0250
                       cart. coord. in units 2pi/alat
        k(    1) = (   0.0500000   0.0500000   0.0500000), wk =   0.0160000
        k(    2) = (   0.0500000   0.0500000   0.1500000), wk =   0.0320000
        k(    3) = (   0.0500000   0.0500000   0.2500000), wk =   0.0320000
        k(    4) = (   0.0500000   0.0500000   0.3500000), wk =   0.0320000
        k(    5) = (   0.0500000   0.0500000   0.4500000), wk =   0.0320000
        k(    6) = (   0.0500000   0.1500000   0.1500000), wk =   0.0320000
        k(    7) = (   0.0500000   0.1500000   0.2500000), wk =   0.0320000
        k(    8) = (   0.0500000   0.1500000   0.3500000), wk =   0.0320000
        k(    9) = (   0.0500000   0.1500000   0.4500000), wk =   0.0320000
        k(   10) = (   0.0500000   0.2500000   0.2500000), wk =   0.0320000
        k(   11) = (   0.0500000   0.2500000   0.3500000), wk =   0.0320000
        k(   12) = (   0.0500000   0.2500000   0.4500000), wk =   0.0320000
        k(   13) = (   0.0500000   0.3500000   0.3500000), wk =   0.0320000
        k(   14) = (   0.0500000   0.3500000   0.4500000), wk =   0.0320000
        k(   15) = (   0.0500000   0.4500000   0.4500000), wk =   0.0320000
        k(   16) = (   0.1500000   0.1500000   0.1500000), wk =   0.0160000
        k(   17) = (   0.1500000   0.1500000   0.2500000), wk =   0.0320000
        k(   18) = (   0.1500000   0.1500000   0.3500000), wk =   0.0320000
        k(   19) = (   0.1500000   0.1500000   0.4500000), wk =   0.0320000
        k(   20) = (   0.1500000   0.2500000   0.2500000), wk =   0.0320000
        k(   21) = (   0.1500000   0.2500000   0.3500000), wk =   0.0320000
        k(   22) = (   0.1500000   0.2500000   0.4500000), wk =   0.0320000
        k(   23) = (   0.1500000   0.3500000   0.3500000), wk =   0.0320000
        k(   24) = (   0.1500000   0.3500000   0.4500000), wk =   0.0320000
        k(   25) = (   0.1500000   0.4500000   0.4500000), wk =   0.0320000
        k(   26) = (   0.2500000   0.2500000   0.2500000), wk =   0.0160000
        k(   27) = (   0.2500000   0.2500000   0.3500000), wk =   0.0320000
        k(   28) = (   0.2500000   0.2500000   0.4500000), wk =   0.0320000
        k(   29) = (   0.2500000   0.3500000   0.3500000), wk =   0.0320000
        k(   30) = (   0.2500000   0.3500000   0.4500000), wk =   0.0320000
        k(   31) = (   0.2500000   0.4500000   0.4500000), wk =   0.0320000
        k(   32) = (   0.3500000   0.3500000   0.3500000), wk =   0.0160000
        k(   33) = (   0.3500000   0.3500000   0.4500000), wk =   0.0320000
        k(   34) = (   0.3500000   0.4500000   0.4500000), wk =   0.0320000
        k(   35) = (   0.4500000   0.4500000   0.4500000), wk =   0.0160000
        k(   36) = (  -0.0500000   0.1500000   0.0500000), wk =   0.0160000
        k(   37) = (  -0.0500000   0.2500000   0.0500000), wk =   0.0160000
        k(   38) = (  -0.0500000   0.3500000   0.0500000), wk =   0.0160000
        k(   39) = (  -0.0500000   0.4500000   0.0500000), wk =   0.0160000
        k(   40) = (   0.1500000   0.0500000   0.1500000), wk =   0.0160000
        k(   41) = (  -0.0500000   0.2500000   0.1500000), wk =   0.0320000
        k(   42) = (   0.2500000   0.0500000   0.1500000), wk =   0.0320000
        k(   43) = (  -0.0500000   0.3500000   0.1500000), wk =   0.0320000
        k(   44) = (   0.3500000   0.0500000   0.1500000), wk =   0.0320000
        k(   45) = (  -0.0500000   0.4500000   0.1500000), wk =   0.0320000
        k(   46) = (   0.4500000   0.0500000   0.1500000), wk =   0.0320000
        k(   47) = (   0.2500000   0.0500000   0.2500000), wk =   0.0160000
        k(   48) = (  -0.0500000   0.3500000   0.2500000), wk =   0.0320000
        k(   49) = (   0.3500000   0.0500000   0.2500000), wk =   0.0320000
        k(   50) = (  -0.0500000   0.4500000   0.2500000), wk =   0.0320000
        k(   51) = (   0.4500000   0.0500000   0.2500000), wk =   0.0320000
        k(   52) = (   0.3500000   0.0500000   0.3500000), wk =   0.0160000
        k(   53) = (  -0.0500000   0.4500000   0.3500000), wk =   0.0320000
        k(   54) = (   0.4500000   0.0500000   0.3500000), wk =   0.0320000
        k(   55) = (   0.4500000   0.0500000   0.4500000), wk =   0.0160000
        k(   56) = (  -0.1500000   0.2500000   0.1500000), wk =   0.0160000
        k(   57) = (  -0.1500000   0.3500000   0.1500000), wk =   0.0160000
        k(   58) = (  -0.1500000   0.4500000   0.1500000), wk =   0.0160000
        k(   59) = (   0.2500000   0.1500000   0.2500000), wk =   0.0160000
        k(   60) = (  -0.1500000   0.3500000   0.2500000), wk =   0.0320000
        k(   61) = (   0.3500000   0.1500000   0.2500000), wk =   0.0320000
        k(   62) = (  -0.1500000   0.4500000   0.2500000), wk =   0.0320000
        k(   63) = (   0.4500000   0.1500000   0.2500000), wk =   0.0320000
        k(   64) = (   0.3500000   0.1500000   0.3500000), wk =   0.0160000
        k(   65) = (  -0.1500000   0.4500000   0.3500000), wk =   0.0320000
        k(   66) = (   0.4500000   0.1500000   0.3500000), wk =   0.0320000
        k(   67) = (   0.4500000   0.1500000   0.4500000), wk =   0.0160000
        k(   68) = (  -0.2500000   0.3500000   0.2500000), wk =   0.0160000
        k(   69) = (  -0.2500000   0.4500000   0.2500000), wk =   0.0160000
        k(   70) = (   0.3500000   0.2500000   0.3500000), wk =   0.0160000
        k(   71) = (  -0.2500000   0.4500000   0.3500000), wk =   0.0320000
        k(   72) = (   0.4500000   0.2500000   0.3500000), wk =   0.0320000
        k(   73) = (   0.4500000   0.2500000   0.4500000), wk =   0.0160000
        k(   74) = (  -0.3500000   0.4500000   0.3500000), wk =   0.0160000
        k(   75) = (   0.4500000   0.3500000   0.4500000), wk =   0.0160000

     Dense  grid:   139753 G-vectors     FFT dimensions: (  72,  72,  72)

     Smooth grid:    35513 G-vectors     FFT dimensions: (  45,  45,  45)

     Estimated max dynamical RAM per process >     665.06 MB

     Check: negative core charge=   -0.000006

     Initial potential from superposition of free atoms

     starting charge   42.99760, renormalised to   44.00000
     Starting wfcs are   31 randomized atomic wfcs

     total cpu time spent up to now is       16.7 secs

     Self-consistent Calculation

     iteration #  1     ecut=    80.00 Ry     beta= 0.70
     Davidson diagonalization with overlap
     ethr =  1.00E-02,  avg # of iterations =  2.1

     total cpu time spent up to now is       45.2 secs

     total energy              =    -364.38806470 Ry
     Harris-Foulkes estimate   =    -365.23387032 Ry
     estimated scf accuracy    <       1.06775032 Ry

     iteration #  2     ecut=    80.00 Ry     beta= 0.70
     Davidson diagonalization with overlap
     ethr =  2.43E-03,  avg # of iterations =  4.1

     total cpu time spent up to now is       85.0 secs

     total energy              =    -364.13024284 Ry
     Harris-Foulkes estimate   =    -365.38215717 Ry
     estimated scf accuracy    <       3.27478994 Ry

     iteration #  3     ecut=    80.00 Ry     beta= 0.70
     Davidson diagonalization with overlap
     ethr =  2.43E-03,  avg # of iterations =  3.9

     total cpu time spent up to now is      121.9 secs

     total energy              =    -364.86214691 Ry
     Harris-Foulkes estimate   =    -364.98189069 Ry
     estimated scf accuracy    <       0.30893822 Ry

     iteration #  4     ecut=    80.00 Ry     beta= 0.70
     Davidson diagonalization with overlap
     ethr =  7.02E-04,  avg # of iterations =  4.0

     total cpu time spent up to now is      150.7 secs

     total energy              =    -364.87726990 Ry
     Harris-Foulkes estimate   =    -364.89287307 Ry
     estimated scf accuracy    <       0.03907205 Ry

     iteration #  5     ecut=    80.00 Ry     beta= 0.70
     Davidson diagonalization with overlap
     ethr =  8.88E-05,  avg # of iterations =  4.0

     total cpu time spent up to now is      187.3 secs

     total energy              =    -364.89162991 Ry
     Harris-Foulkes estimate   =    -364.89269506 Ry
     estimated scf accuracy    <       0.00403459 Ry

     iteration #  6     ecut=    80.00 Ry     beta= 0.70
     Davidson diagonalization with overlap
     ethr =  9.17E-06,  avg # of iterations =  2.7

     total cpu time spent up to now is      214.4 secs

     total energy              =    -364.89181834 Ry
     Harris-Foulkes estimate   =    -364.89204990 Ry
     estimated scf accuracy    <       0.00063384 Ry

     iteration #  7     ecut=    80.00 Ry     beta= 0.70
     Davidson diagonalization with overlap
     ethr =  1.44E-06,  avg # of iterations =  3.9

     total cpu time spent up to now is      248.3 secs

     total energy              =    -364.89199436 Ry
     Harris-Foulkes estimate   =    -364.89201867 Ry
     estimated scf accuracy    <       0.00006005 Ry

     iteration #  8     ecut=    80.00 Ry     beta= 0.70
     Davidson diagonalization with overlap
     ethr =  1.36E-07,  avg # of iterations =  3.0

     total cpu time spent up to now is      281.1 secs

     total energy              =    -364.89200450 Ry
     Harris-Foulkes estimate   =    -364.89201171 Ry
     estimated scf accuracy    <       0.00002406 Ry

     iteration #  9     ecut=    80.00 Ry     beta= 0.70
     Davidson diagonalization with overlap
     ethr =  5.47E-08,  avg # of iterations =  2.6

     total cpu time spent up to now is      308.7 secs

     total energy              =    -364.89200680 Ry
     Harris-Foulkes estimate   =    -364.89200732 Ry
     estimated scf accuracy    <       0.00000179 Ry

     iteration # 10     ecut=    80.00 Ry     beta= 0.70
     Davidson diagonalization with overlap
     ethr =  4.07E-09,  avg # of iterations =  3.1

     total cpu time spent up to now is      342.3 secs

     total energy              =    -364.89200726 Ry
     Harris-Foulkes estimate   =    -364.89200729 Ry
     estimated scf accuracy    <       0.00000004 Ry

     iteration # 11     ecut=    80.00 Ry     beta= 0.70
     Davidson diagonalization with overlap
     ethr =  9.93E-11,  avg # of iterations =  3.3

     total cpu time spent up to now is      381.6 secs

     End of self-consistent calculation

          k = 0.0500 0.0500 0.0500 (  4412 PWs)   bands (ev):

   -43.2202 -19.7581 -19.5691 -19.5689  -5.6764  -4.4080  -4.2930  -2.4771
    -2.4530  -2.4524  -2.3092  -2.3035   7.0163   8.6278   8.6985   9.0027
    10.6913  10.7093  11.1282  11.4939  11.7532  11.7856  15.1095  15.6904
    15.6985  18.0512

          k = 0.0500 0.0500 0.1500 (  4426 PWs)   bands (ev):

   -43.2197 -19.7573 -19.5904 -19.5682  -5.5664  -4.3630  -4.2423  -2.4918
    -2.4679  -2.4517  -2.3518  -2.2926   6.5089   8.6947   8.7879   9.3327
    10.5019  10.6297  11.1183  11.3392  11.5820  11.7857  15.5045  15.6978
    15.8135  18.2734

          k = 0.0500 0.0500 0.2500 (  4426 PWs)   bands (ev):

   -43.2189 -19.7559 -19.6247 -19.5669  -5.3847  -4.2873  -4.1561  -2.5171
    -2.4925  -2.4501  -2.4236  -2.2746   5.9695   8.7911   8.8735   9.2159
    10.4060  10.4613  11.0562  11.2443  11.5398  11.9075  15.6965  16.0804
    16.2145  18.2381

          k = 0.0500 0.0500 0.3500 (  4413 PWs)   bands (ev):

   -43.2181 -19.7545 -19.6586 -19.5656  -5.1980  -4.2053  -4.0659  -2.5555
    -2.5194  -2.4845  -2.4485  -2.2588   5.5843   8.4274   9.0197   9.2414
    10.1300  10.2878  10.9516  11.1616  11.6317  12.5094  15.6948  16.6072
    16.7131  17.2064

          k = 0.0500 0.0500 0.4500 (  4412 PWs)   bands (ev):

   -43.2176 -19.7536 -19.6794 -19.5648  -5.0799  -4.1498  -4.0089  -2.5971
    -2.5360  -2.5072  -2.4476  -2.2502   5.3976   8.0647   9.1331   9.4269
     9.8873  10.0927  10.8946  11.1526  11.6751  13.1321  15.6773  16.3542
    16.9209  17.0553

          k = 0.0500 0.1500 0.1500 (  4414 PWs)   bands (ev):

   -43.2192 -19.7788 -19.5894 -19.5673  -5.4415  -4.3177  -4.2074  -2.4944
    -2.4871  -2.4651  -2.3391  -2.3111   6.1631   8.6508   8.7411   9.5881
    10.2865  10.4720  11.0632  11.2314  11.5569  11.8786  15.5031  16.0052
    16.0953  18.4122

          k = 0.0500 0.1500 0.2500 (  4417 PWs)   bands (ev):

   -43.2184 -19.7774 -19.6236 -19.5660  -5.2646  -4.2552  -4.1231  -2.5265
    -2.5043  -2.4642  -2.3731  -2.2943   5.7370   8.6364   8.8612   9.3837
    10.1728  10.3198  10.9178  11.2754  11.3036  12.1499  15.9854  16.0944
    16.4277  18.3281

          k = 0.0500 0.1500 0.3500 (  4407 PWs)   bands (ev):

   -43.2176 -19.7758 -19.6574 -19.5647  -5.0863  -4.1952  -4.0254  -2.5597
    -2.5216  -2.4633  -2.4075  -2.2787   5.4014   8.3799   8.9590   9.2792
     9.9208  10.1371  10.9326  11.2390  11.2638  12.5754  15.9921  16.5984
    16.8590  17.3975

          k = 0.0500 0.1500 0.4500 (  4414 PWs)   bands (ev):

   -43.2172 -19.7749 -19.6782 -19.5638  -4.9760  -4.1576  -3.9584  -2.5830
    -2.5358  -2.4626  -2.4205  -2.2733   5.2300   8.0679   8.9925   9.4732
     9.7503   9.8810  10.9650  11.2298  11.2823  12.9138  15.9669  16.8057
    16.9108  17.1625

          k = 0.0500 0.2500 0.2500 (  4413 PWs)   bands (ev):

   -43.2176 -19.8117 -19.6219 -19.5645  -5.0739  -4.1982  -4.0600  -2.5365
    -2.5086  -2.4816  -2.3252  -2.3191   5.3955   8.4632   8.8870   9.2497
     9.9709  10.0273  10.5824  11.2886  11.5027  12.3950  16.0544  16.4896
    16.7668  18.1534

          k = 0.0500 0.2500 0.3500 (  4411 PWs)   bands (ev):

   -43.2169 -19.8100 -19.6555 -19.5632  -4.9251  -4.1531  -3.9491  -2.5509
    -2.5208  -2.4831  -2.3360  -2.2881   5.1222   8.3070   8.8783   9.0992
     9.6316  10.0577  10.4691  11.1117  11.6472  12.4967  16.4454  16.5946
    17.0814  17.7545

          k = 0.0500 0.2500 0.4500 (  4413 PWs)   bands (ev):

   -43.2164 -19.8089 -19.6761 -19.5623  -4.8423  -4.1186  -3.8702  -2.5613
    -2.5346  -2.4841  -2.3206  -2.2851   4.9734   8.0677   8.8878   9.0280
     9.5539   9.9681  10.4972  11.0654  11.7005  12.5187  16.4500  16.8738
    17.3196  17.5172

          k = 0.0500 0.3500 0.3500 (  4414 PWs)   bands (ev):

   -43.2161 -19.8438 -19.6536 -19.5617  -4.8059  -4.0505  -3.8676  -2.5490
    -2.5237  -2.4949  -2.3526  -2.2153   4.8637   8.0974   8.5846   9.0406
     9.4817   9.9250  10.3214  11.0739  11.8814  12.3672  16.5359  16.9519
    17.3067  18.1428

          k = 0.0500 0.3500 0.4500 (  4415 PWs)   bands (ev):

   -43.2156 -19.8426 -19.6741 -19.5608  -4.7694  -3.9959  -3.7739  -2.5515
    -2.5334  -2.4979  -2.3596  -2.1681   4.7339   8.0070   8.3658   9.0945
     9.2740  10.0787  10.1975  10.9698  11.9325  12.2518  16.8279  16.9456
    17.5101  18.1819

          k = 0.0500 0.4500 0.4500 (  4422 PWs)   bands (ev):

   -43.2151 -19.8633 -19.6728 -19.5599  -4.7531  -3.8781  -3.7101  -2.5550
    -2.5329  -2.5054  -2.3818  -2.0970   4.5938   7.7803   8.2165   9.0544
     9.2232   9.9509  10.2738  10.9302  11.6823  12.4207  16.8015  17.2481
    17.6382  18.5992

          k = 0.1500 0.1500 0.1500 (  4416 PWs)   bands (ev):

   -43.2187 -19.7779 -19.5890 -19.5881  -5.3359  -4.2810  -4.1666  -2.5095
    -2.4969  -2.4682  -2.3232  -2.3167   5.9500   8.5526   8.6569   9.7213
    10.1368  10.3344  11.0211  11.2935  11.5681  11.8032  15.7872  16.0736
    16.1099  18.9746

          k = 0.1500 0.1500 0.2500 (  4412 PWs)   bands (ev):

   -43.2179 -19.7765 -19.6226 -19.5871  -5.1665  -4.2251  -4.0887  -2.5362
    -2.4995  -2.4664  -2.3469  -2.2932   5.6252   8.5077   8.5935   9.4128
     9.9286  10.2332  11.0662  11.3136  11.4297  12.0595  16.0297  16.2501
    16.4185  18.2120

          k = 0.1500 0.1500 0.3500 (  4414 PWs)   bands (ev):

   -43.2172 -19.7750 -19.6563 -19.5857  -5.0014  -4.1724  -3.9937  -2.5574
    -2.4885  -2.4634  -2.3813  -2.2781   5.3375   8.3433   8.5316   9.0831
     9.8039  10.2799  10.7865  11.3712  11.4378  12.4269  15.9553  16.6492
    16.8460  17.6150

          k = 0.1500 0.1500 0.4500 (  4399 PWs)   bands (ev):

   -43.2167 -19.7740 -19.6770 -19.5848  -4.9031  -4.1406  -3.9250  -2.5651
    -2.4773  -2.4613  -2.4064  -2.2750   5.1814   8.0744   8.4564   9.0914
     9.7737  10.3368  10.5388  11.4187  11.4485  12.6365  15.8704  16.9149
    17.1460  17.3286

          k = 0.1500 0.2500 0.2500 (  4409 PWs)   bands (ev):

   -43.2172 -19.8108 -19.6209 -19.5856  -4.9686  -4.1745  -4.0570  -2.5391
    -2.5138  -2.4537  -2.3032  -2.2942   5.3862   8.2852   8.4231   9.2129
     9.6098  10.1145  10.9357  11.3905  11.5515  12.2128  16.0966  16.4785
    16.7008  17.9881

          k = 0.1500 0.2500 0.3500 (  4415 PWs)   bands (ev):

   -43.2164 -19.8091 -19.6545 -19.5842  -4.8208  -4.1532  -3.9529  -2.5443
    -2.4981  -2.4443  -2.3080  -2.2672   5.1724   8.2012   8.3209   8.8124
     9.3120  10.1862  11.0265  11.1492  11.6793  12.2285  16.2402  16.6217
    17.0017  17.9483

          k = 0.1500 0.2500 0.4500 (  4413 PWs)   bands (ev):

   -43.2159 -19.8080 -19.6751 -19.5833  -4.7398  -4.1403  -3.8729  -2.5420
    -2.4829  -2.4466  -2.2946  -2.2683   5.0455   8.0512   8.2426   8.6069
     9.2648  10.2929  10.8118  11.2256  11.7292  12.1455  16.2579  16.8372
    17.2534  17.9726

          k = 0.1500 0.3500 0.3500 (  4422 PWs)   bands (ev):

   -43.2156 -19.8429 -19.6526 -19.5826  -4.6829  -4.0768  -3.9108  -2.5382
    -2.4897  -2.4191  -2.3106  -2.1970   4.9838   7.9562   8.2477   8.5686
     8.8813  10.1708  10.8899  11.2227  11.7577  12.1044  16.4064  16.8395
    17.1969  18.3179

          k = 0.1500 0.3500 0.4500 (  4413 PWs)   bands (ev):

   -43.2151 -19.8417 -19.6731 -19.5818  -4.6440  -4.0516  -3.8206  -2.5314
    -2.4614  -2.4281  -2.3160  -2.1501   4.8835   7.9301   8.1872   8.3242
     8.6770  10.2530  10.9920  11.0348  11.5155  12.1704  16.6997  16.8415
    17.3845  18.5563

          k = 0.1500 0.4500 0.4500 (  4431 PWs)   bands (ev):

   -43.2147 -19.8623 -19.6719 -19.5808  -4.6238  -3.9466  -3.7894  -2.5267
    -2.4379  -2.3988  -2.3556  -2.0769   4.7748   7.6949   8.1614   8.3073
     8.4178  10.2610  10.8582  11.0567  11.1965  12.3718  16.7910  17.0869
    17.4962  18.9244

          k = 0.2500 0.2500 0.2500 (  4401 PWs)   bands (ev):

   -43.2164 -19.8092 -19.6199 -19.6189  -4.8107  -4.1378  -4.0332  -2.5200
    -2.5163  -2.4177  -2.2772  -2.2588   5.3299   7.9833   8.1249   9.0423
     9.4195   9.6360  11.2352  11.6029  11.7442  11.9294  16.0688  16.6668
    16.6710  18.0313

          k = 0.2500 0.2500 0.3500 (  4405 PWs)   bands (ev):

   -43.2156 -19.8076 -19.6528 -19.6178  -4.6789  -4.1214  -3.9565  -2.5115
    -2.4884  -2.3738  -2.2598  -2.2351   5.2261   7.8117   7.9408   8.6083
     9.1493   9.5927  11.3095  11.5548  11.7152  11.9497  16.1524  16.7266
    16.9937  18.2774

          k = 0.2500 0.2500 0.4500 (  4423 PWs)   bands (ev):

   -43.2151 -19.8066 -19.6733 -19.6169  -4.6146  -4.1203  -3.8788  -2.5030
    -2.4696  -2.3288  -2.2515  -2.2367   5.1451   7.6837   7.9443   8.2045
     9.1051   9.6320  11.1472  11.5560  11.6391  11.9977  16.3107  16.8129
    17.2446  18.5421

          k = 0.2500 0.3500 0.3500 (  4421 PWs)   bands (ev):

   -43.2148 -19.8413 -19.6511 -19.6163  -4.4947  -4.1017  -3.9721  -2.4966
    -2.4581  -2.3206  -2.2276  -2.1612   5.1880   7.5183   7.7361   8.3771
     8.7456   9.4452  10.8986  11.6277  11.8539  12.0232  16.3490  16.9031
    17.1468  18.6750

          k = 0.2500 0.3500 0.4500 (  4433 PWs)   bands (ev):

   -43.2144 -19.8402 -19.6715 -19.6153  -4.4505  -4.1156  -3.8887  -2.4851
    -2.4279  -2.2892  -2.2187  -2.1150   5.1609   7.5196   7.5712   8.1277
     8.5231   9.4727  10.5351  11.6205  11.8376  12.1580  16.6645  16.8847
    17.3301  19.0447

          k = 0.2500 0.4500 0.4500 (  4435 PWs)   bands (ev):

   -43.2139 -19.8608 -19.6704 -19.6144  -4.4109  -4.0412  -3.8964  -2.4769
    -2.3937  -2.2609  -2.2062  -2.0382   5.1341   7.3140   7.6073   7.9595
     8.2591   9.4475  10.0241  11.6126  11.8837  12.3388  16.8665  17.0527
    17.4313  19.4155

          k = 0.3500 0.3500 0.3500 (  4422 PWs)   bands (ev):

   -43.2141 -19.8397 -19.6498 -19.6493  -4.3613  -4.0839  -4.0049  -2.4524
    -2.4356  -2.2262  -2.1434  -2.1148   5.3899   7.1911   7.3253   8.2709
     8.7282   8.7545  10.1851  11.9277  12.0194  12.2082  16.5590  17.1193
    17.1280  19.1005

          k = 0.3500 0.3500 0.4500 (  4433 PWs)   bands (ev):

   -43.2136 -19.8387 -19.6699 -19.6486  -4.3317  -4.0885  -3.9497  -2.4352
    -2.4136  -2.1569  -2.1120  -2.0712   5.4933   7.0736   7.1485   8.0656
     8.4749   8.7628   9.6397  11.9764  12.1143  12.3438  16.8596  17.0629
    17.3321  19.5166

          k = 0.3500 0.4500 0.4500 (  4431 PWs)   bands (ev):

   -43.2131 -19.8593 -19.6689 -19.6476  -4.2020  -4.1139  -3.9864  -2.4272
    -2.3854  -2.1170  -2.0509  -1.9898   5.6497   6.8793   7.0743   7.8874
     8.2474   8.6879   8.9502  12.0854  12.3113  12.3422  17.0839  17.2077
    17.4073  19.9179

          k = 0.4500 0.4500 0.4500 (  4413 PWs)   bands (ev):

   -43.2126 -19.8583 -19.6680 -19.6680  -4.1801  -4.0501  -4.0309  -2.3991
    -2.3791  -2.0286  -1.9602  -1.9537   6.1907   6.6611   6.7734   7.8253
     8.0665   8.2251   8.3198  12.2967  12.3083  12.5360  17.3037  17.3854
    17.3911  20.3178

          k =-0.0500 0.1500 0.0500 (  4426 PWs)   bands (ev):

   -43.2197 -19.7798 -19.5682 -19.5681  -5.5498  -4.3589  -4.2524  -2.4761
    -2.4702  -2.4652  -2.3492  -2.2965   6.4951   8.6602   8.6848   9.3779
    10.5161  10.5295  11.1195  11.3134  11.7868  11.7984  15.1096  15.9945
    16.0126  18.0529

          k =-0.0500 0.2500 0.0500 (  4426 PWs)   bands (ev):

   -43.2189 -19.8145 -19.5668 -19.5667  -5.3374  -4.2789  -4.1818  -2.5036
    -2.4846  -2.4741  -2.4223  -2.2779   5.9262   8.7016   8.7030   9.1767
    10.2912  10.3062  11.0743  11.5022  11.8422  12.0093  15.1095  16.4722
    16.4982  18.0560

          k =-0.0500 0.3500 0.0500 (  4413 PWs)   bands (ev):

   -43.2181 -19.8488 -19.5654 -19.5653  -5.1140  -4.1991  -4.1038  -2.5592
    -2.5019  -2.4806  -2.4725  -2.2611   5.5086   8.3744   8.7255   8.9570
    10.1090  10.1555  11.0170  11.7155  11.9009  12.6312  15.1083  16.9408
    16.9678  17.3361

          k =-0.0500 0.4500 0.0500 (  4412 PWs)   bands (ev):

   -43.2176 -19.8699 -19.5645 -19.5645  -4.9689  -4.1507  -4.0507  -2.6105
    -2.5119  -2.5045  -2.4715  -2.2518   5.2995   7.9813   8.7297   8.9644
    10.0150  10.0868  10.9794  11.7910  11.9398  13.2729  15.1040  16.4539
    17.2288  17.2638

          k = 0.1500 0.0500 0.1500 (  4414 PWs)   bands (ev):

   -43.2192 -19.7564 -19.5900 -19.5890  -5.4610  -4.3230  -4.1917  -2.5087
    -2.4685  -2.4641  -2.3452  -2.3097   6.1840   8.6301   8.8503   9.5576
    10.2844  10.4184  11.1989  11.2225  11.5259  11.8316  15.7542  15.8294
    15.8529  18.6519

          k =-0.0500 0.2500 0.1500 (  4417 PWs)   bands (ev):

   -43.2184 -19.8134 -19.5879 -19.5659  -5.2347  -4.2428  -4.1462  -2.5251
    -2.4905  -2.4812  -2.3714  -2.2972   5.7098   8.5476   8.7723   9.4002
    10.0200  10.2653  10.9927  11.2788  11.6075  12.2085  15.4990  16.4794
    16.5406  18.4161

          k = 0.2500 0.0500 0.1500 (  4417 PWs)   bands (ev):

   -43.2184 -19.7551 -19.6237 -19.5880  -5.2906  -4.2530  -4.1052  -2.5314
    -2.4867  -2.4644  -2.3844  -2.2969   5.7595   8.6348   8.9102   9.3677
    10.0836  10.2052  11.0382  11.3010  11.5709  12.0123  15.7959  16.1938
    16.3069  18.4276

          k =-0.0500 0.3500 0.1500 (  4407 PWs)   bands (ev):

   -43.2176 -19.8477 -19.5864 -19.5645  -5.0229  -4.1623  -4.0801  -2.5651
    -2.4985  -2.4867  -2.4065  -2.2811   5.3434   8.2563   8.7088   9.1823
     9.8355  10.1242  11.0983  11.2821  11.6655  12.6968  15.4874  16.9365
    16.9739  17.5388

          k = 0.3500 0.0500 0.1500 (  4407 PWs)   bands (ev):

   -43.2176 -19.7537 -19.6575 -19.5866  -5.1223  -4.1722  -4.0140  -2.5584
    -2.5005  -2.4634  -2.4317  -2.2812   5.4217   8.4090   8.8633   9.3088
     9.8531  10.1919  10.7370  11.2981  11.6521  12.5167  15.7713  16.6711
    16.7777  17.4350

          k =-0.0500 0.4500 0.1500 (  4414 PWs)   bands (ev):

   -43.2171 -19.8686 -19.5855 -19.5636  -4.8904  -4.1042  -4.0398  -2.5957
    -2.5090  -2.4865  -2.4194  -2.2749   5.1507   7.9206   8.6470   9.1946
     9.7304  10.0602  11.1829  11.2696  11.7033  13.0711  15.4685  16.8903
    17.2360  17.2942

          k = 0.4500 0.0500 0.1500 (  4414 PWs)   bands (ev):

   -43.2172 -19.7528 -19.6782 -19.5857  -5.0208  -4.1137  -3.9562  -2.5809
    -2.5094  -2.4627  -2.4543  -2.2746   5.2481   8.0763   8.8831   9.4436
     9.7520  10.0478  10.6338  11.2722  11.6902  12.9352  15.7185  16.8400
    16.9825  17.0920

          k = 0.2500 0.0500 0.2500 (  4413 PWs)   bands (ev):

   -43.2176 -19.7537 -19.6227 -19.6213  -5.1485  -4.1826  -4.0175  -2.5340
    -2.4899  -2.4790  -2.3442  -2.3279   5.4463   8.5504   8.9480   9.2655
     9.6972   9.9092  10.9375  11.3532  11.6916  12.1713  16.0953  16.2629
    16.6367  18.1874

          k =-0.0500 0.3500 0.2500 (  4411 PWs)   bands (ev):

   -43.2169 -19.8458 -19.6202 -19.5631  -4.8965  -4.1158  -3.9924  -2.5538
    -2.5105  -2.4944  -2.3349  -2.2895   5.0926   8.1563   8.8219   9.0470
     9.7339   9.9495  10.5368  11.3179  11.6153  12.5968  16.0360  16.9553
    17.0860  17.8740

          k = 0.3500 0.0500 0.2500 (  4411 PWs)   bands (ev):

   -43.2169 -19.7523 -19.6557 -19.6204  -5.0243  -4.0852  -3.9243  -2.5417
    -2.4983  -2.4826  -2.3549  -2.3121   5.1676   8.3880   8.7839   9.0779
     9.5540   9.9130  10.6450  11.3629  11.8036  12.4211  16.1252  16.6767
    16.9796  17.7848

          k =-0.0500 0.4500 0.2500 (  4413 PWs)   bands (ev):

   -43.2164 -19.8666 -19.6191 -19.5622  -4.8001  -4.0311  -3.9613  -2.5712
    -2.5105  -2.5058  -2.3212  -2.2840   4.9235   7.8489   8.7134   9.0410
     9.6299   9.9266  10.5807  11.3481  11.6280  12.6957  16.0200  17.2393
    17.2631  17.7421

          k = 0.4500 0.0500 0.2500 (  4413 PWs)   bands (ev):

   -43.2164 -19.7514 -19.6763 -19.6194  -4.9589  -4.0065  -3.8653  -2.5536
    -2.5076  -2.4843  -2.3418  -2.3138   5.0133   8.0959   8.7601   8.9722
     9.6095   9.9720  10.3895  11.4142  11.7887  12.5972  16.0978  16.9942
    17.2170  17.5281

          k = 0.3500 0.0500 0.3500 (  4414 PWs)   bands (ev):

   -43.2161 -19.7508 -19.6543 -19.6534  -4.9594  -3.9513  -3.8274  -2.5324
    -2.5048  -2.4882  -2.3611  -2.2652   4.9283   8.3908   8.4494   8.9708
     9.1581   9.9868  10.5649  11.1462  12.1942  12.2189  16.5420  16.7317
    17.2016  18.0875

          k =-0.0500 0.4500 0.3500 (  4415 PWs)   bands (ev):

   -43.2156 -19.8645 -19.6524 -19.5608  -4.7589  -3.9412  -3.8228  -2.5565
    -2.5245  -2.5058  -2.3597  -2.1672   4.7141   7.8052   8.5154   8.9316
     9.5097   9.8223  10.3384  11.0723  11.8278  12.3936  16.5227  17.2487
    17.4709  18.3733

          k = 0.4500 0.0500 0.3500 (  4415 PWs)   bands (ev):

   -43.2156 -19.7499 -19.6743 -19.6527  -4.9343  -3.8431  -3.7657  -2.5360
    -2.5070  -2.4972  -2.3690  -2.2239   4.7890   8.1068   8.4566   8.7961
     9.1238  10.1380  10.3786  11.0976  12.0406  12.4110  16.6150  16.9943
    17.3645  18.1696

          k = 0.4500 0.0500 0.4500 (  4422 PWs)   bands (ev):

   -43.2151 -19.7490 -19.6732 -19.6731  -4.9327  -3.7181  -3.6990  -2.5349
    -2.5068  -2.5024  -2.3958  -2.1584   4.6560   8.0173   8.2626   8.8220
     8.8404  10.2756  10.3655  10.9114  11.8572  12.5863  16.9718  17.0094
    17.4448  18.5436

          k =-0.1500 0.2500 0.1500 (  4412 PWs)   bands (ev):

   -43.2179 -19.8124 -19.5874 -19.5867  -5.1304  -4.2090  -4.1249  -2.5347
    -2.5070  -2.4665  -2.3374  -2.2974   5.5942   8.4143   8.5545   9.4301
    10.0047  10.1712  10.8459  11.3626  11.6299  12.1356  15.7495  16.4866
    16.5409  18.2531

          k =-0.1500 0.3500 0.1500 (  4414 PWs)   bands (ev):

   -43.2171 -19.8465 -19.5857 -19.5853  -4.9234  -4.1284  -4.0814  -2.5645
    -2.5012  -2.4549  -2.3681  -2.2820   5.2757   8.2679   8.2741   9.1643
     9.9398  10.0830  10.7574  11.3869  11.6847  12.5494  15.6703  16.9216
    16.9233  17.7022

          k =-0.1500 0.4500 0.1500 (  4399 PWs)   bands (ev):

   -43.2167 -19.8674 -19.5848 -19.5844  -4.7969  -4.0714  -4.0536  -2.5788
    -2.4974  -2.4400  -2.3922  -2.2791   5.0992   7.9326   8.1765   9.1911
     9.9192   9.9983  10.7494  11.3885  11.7181  12.7722  15.5977  17.1459
    17.2028  17.4766

          k = 0.2500 0.1500 0.2500 (  4409 PWs)   bands (ev):

   -43.2172 -19.7750 -19.6216 -19.6204  -5.0188  -4.1686  -4.0233  -2.5339
    -2.5078  -2.4529  -2.3167  -2.2954   5.4197   8.3279   8.4499   9.2228
     9.5213  10.0655  11.2034  11.2797  11.7103  12.0232  16.1590  16.3930
    16.5942  17.9852

          k =-0.1500 0.3500 0.2500 (  4415 PWs)   bands (ev):

   -43.2164 -19.8447 -19.6192 -19.5841  -4.7834  -4.1042  -4.0212  -2.5487
    -2.5077  -2.4308  -2.3038  -2.2717   5.1400   8.0263   8.2934   8.8135
     9.5206  10.1207  10.7124  11.4785  11.6741  12.3091  16.0105  16.8493
    17.0117  17.9985

          k = 0.3500 0.1500 0.2500 (  4415 PWs)   bands (ev):

   -43.2164 -19.7735 -19.6546 -19.6194  -4.8912  -4.1022  -3.9386  -2.5362
    -2.4958  -2.4317  -2.3207  -2.2835   5.2040   8.1870   8.3591   8.7380
     9.3777  10.0940  10.9890  11.3387  11.7937  12.1682  16.1196  16.6604
    16.9344  17.9446

          k =-0.1500 0.4500 0.2500 (  4413 PWs)   bands (ev):

   -43.2159 -19.8655 -19.6182 -19.5831  -4.6831  -4.0359  -4.0033  -2.5519
    -2.5012  -2.4142  -2.3001  -2.2680   4.9915   7.8140   8.0793   8.7589
     9.5263  10.1720  10.5497  11.5300  11.6983  12.2969  15.9871  17.1118
    17.2532  18.0947

          k = 0.4500 0.1500 0.2500 (  4413 PWs)   bands (ev):

   -43.2159 -19.7726 -19.6752 -19.6184  -4.8252  -4.0588  -3.8706  -2.5347
    -2.4851  -2.4154  -2.3215  -2.2857   5.0740   8.0647   8.1719   8.5916
     9.3719  10.1713  10.7674  11.4029  11.7598  12.2338  16.1016  16.8938
    17.2019  17.9689

          k = 0.3500 0.1500 0.3500 (  4422 PWs)   bands (ev):

   -43.2156 -19.7721 -19.6532 -19.6524  -4.8209  -3.9884  -3.8743  -2.5217
    -2.4843  -2.4069  -2.3069  -2.2458   5.0433   8.1150   8.1806   8.5051
     8.8485  10.1071  11.1198  11.1415  11.7874  12.1962  16.3894  16.7391
    17.1240  18.2826

          k =-0.1500 0.4500 0.3500 (  4413 PWs)   bands (ev):

   -43.2151 -19.8636 -19.6515 -19.5817  -4.6303  -3.9809  -3.8926  -2.5355
    -2.4770  -2.3989  -2.3271  -2.1488   4.8615   7.7165   8.1859   8.3715
     8.8621  10.1981  10.7272  11.3161  11.5160  12.2117  16.4653  17.0917
    17.3695  18.6425

          k = 0.4500 0.1500 0.3500 (  4413 PWs)   bands (ev):

   -43.2151 -19.7711 -19.6733 -19.6517  -4.7960  -3.9116  -3.8158  -2.5153
    -2.4648  -2.3962  -2.3182  -2.2065   4.9363   8.0279   8.1300   8.2151
     8.7413  10.1633  10.9486  11.2138  11.5321  12.3652  16.5396  16.8928
    17.3113  18.5427

          k = 0.4500 0.1500 0.4500 (  4431 PWs)   bands (ev):

   -43.2147 -19.7702 -19.6722 -19.6721  -4.7956  -3.7972  -3.7799  -2.5072
    -2.4272  -2.3833  -2.3551  -2.1399   4.8398   7.9890   8.0688   8.1336
     8.3505  10.2055  11.0328  11.0604  11.1977  12.5764  16.8684  16.9328
    17.4133  18.8869

          k =-0.2500 0.3500 0.2500 (  4405 PWs)   bands (ev):

   -43.2156 -19.8430 -19.6181 -19.6174  -4.6171  -4.0832  -4.0439  -2.5203
    -2.4933  -2.3673  -2.2515  -2.2335   5.1882   7.6759   8.0336   8.5099
     9.3839   9.5039  11.0611  11.7585  11.8123  11.8630  16.0789  16.8331
    17.0153  18.2985

          k =-0.2500 0.4500 0.2500 (  4423 PWs)   bands (ev):

   -43.2151 -19.8637 -19.6170 -19.6165  -4.5163  -4.0508  -4.0251  -2.5159
    -2.4797  -2.3090  -2.2584  -2.2219   5.0826   7.5030   7.9124   8.2702
     9.3745   9.5147  10.8761  11.7513  11.7900  11.8777  16.1722  17.0059
    17.2672  18.6161

          k = 0.3500 0.2500 0.3500 (  4421 PWs)   bands (ev):

   -43.2148 -19.8061 -19.6515 -19.6509  -4.5915  -4.0424  -3.9431  -2.4810
    -2.4652  -2.3079  -2.2113  -2.2037   5.2298   7.6107   7.6172   8.4509
     8.7491   9.3660  10.9656  11.6594  11.6829  12.2010  16.3408  16.8651
    17.1169  18.6612

          k =-0.2500 0.4500 0.3500 (  4433 PWs)   bands (ev):

   -43.2144 -19.8619 -19.6500 -19.6153  -4.4221  -4.0381  -3.9856  -2.4891
    -2.4350  -2.2710  -2.2267  -2.1121   5.1323   7.3144   7.7918   7.9879
     8.6926   9.4277  10.5012  11.6063  11.8909  12.1443  16.5448  17.0301
    17.3319  19.0674

          k = 0.4500 0.2500 0.3500 (  4433 PWs)   bands (ev):

   -43.2144 -19.8051 -19.6716 -19.6502  -4.5664  -4.0080  -3.8867  -2.4702
    -2.4397  -2.2520  -2.2117  -2.1676   5.2022   7.4390   7.6099   8.1158
     8.6432   9.3577  10.5804  11.6741  11.6929  12.3495  16.6084  16.8941
    17.3056  19.0348

          k = 0.4500 0.2500 0.4500 (  4435 PWs)   bands (ev):

   -43.2139 -19.8041 -19.6706 -19.6705  -4.5677  -3.9046  -3.8887  -2.4585
    -2.4073  -2.2139  -2.2003  -2.1035   5.2034   7.4159   7.4321   8.0037
     8.3150   9.3279  10.1107  11.7057  11.7083  12.5606  16.8927  16.9763
    17.3979  19.3945

          k =-0.3500 0.4500 0.3500 (  4433 PWs)   bands (ev):

   -43.2136 -19.8603 -19.6487 -19.6484  -4.2405  -4.0819  -4.0405  -2.4457
    -2.4073  -2.1776  -2.0999  -2.0559   5.4478   6.9582   7.3328   7.9290
     8.6152   8.7245   9.6218  12.0251  12.1602  12.2156  16.8106  17.1405
    17.3378  19.5170

          k = 0.4500 0.3500 0.4500 (  4431 PWs)   bands (ev):

   -43.2131 -19.8377 -19.6690 -19.6689  -4.3320  -3.9961  -3.9803  -2.4094
    -2.4017  -2.0725  -2.0457  -2.0434   5.7179   6.9255   6.9298   7.9551
     8.3169   8.5590   8.9955  12.1176  12.1250  12.5452  17.0985  17.1826
    17.3905  19.9143

     the Fermi energy is    13.2774 ev

!    total energy              =    -364.89200729 Ry
     Harris-Foulkes estimate   =    -364.89200729 Ry
     estimated scf accuracy    <          1.6E-09 Ry

     The total energy is the sum of the following terms:

     one-electron contribution =     -65.11860212 Ry
     hartree contribution      =      65.95763825 Ry
     xc contribution           =     -86.34263650 Ry
     ewald contribution        =    -279.38970603 Ry
     smearing contrib. (-TS)   =       0.00129911 Ry

     convergence has been achieved in  11 iterations

     Forces acting on atoms (cartesian axes, Ry/au):

     atom    1 type  1   force =     0.00000000    0.02580532    0.00000000
     atom    2 type  2   force =     0.00000000   -0.10160077    0.00000000
     atom    3 type  3   force =     0.00000000   -0.00776938    0.00000000
     atom    4 type  3   force =     0.00000000    0.09133421    0.00000000
     atom    5 type  3   force =     0.00000000   -0.00776938    0.00000000

     Total force =     0.137060     Total SCF correction =     0.000051


     Computing stress (Cartesian axis) and pressure

          total   stress  (Ry/bohr**3)                   (kbar)     P=  358.28
   0.00225717   0.00000000   0.00000000        332.04      0.00      0.00
   0.00000000   0.00279237   0.00000000          0.00    410.77      0.00
   0.00000000   0.00000000   0.00225717          0.00      0.00    332.04


     BFGS Geometry Optimization

     number of scf cycles    =   1
     number of bfgs steps    =   0

     energy   new            =    -364.8920072869 Ry

     new trust radius        =       0.1016007682 bohr
     new conv_thr            =       0.0000000100 Ry


ATOMIC_POSITIONS (crystal)
Pb       0.000000000   0.000000000   0.000000000    0   0   0
Ti       0.500000000   0.533790102   0.500000000
O        0.500000000   0.498913373   0.000000000
O        0.500000000   0.012774015   0.500000000
O        0.000000000   0.498913373   0.500000000



     Writing output data file PbTiO3.save/
     NEW-OLD atomic charge density approx. for the potential

     Check: negative core charge=   -0.000006

     total cpu time spent up to now is      400.9 secs

     Self-consistent Calculation

     iteration #  1     ecut=    80.00 Ry     beta= 0.70
     Davidson diagonalization with overlap
     ethr =  1.00E-06,  avg # of iterations =  6.7

     total cpu time spent up to now is      468.3 secs

     total energy              =    -364.89931247 Ry
     Harris-Foulkes estimate   =    -364.90491140 Ry
     estimated scf accuracy    <       0.00800944 Ry

     iteration #  2     ecut=    80.00 Ry     beta= 0.70
     Davidson diagonalization with overlap
     ethr =  1.82E-05,  avg # of iterations =  3.9

     total cpu time spent up to now is      505.7 secs

     total energy              =    -364.89893750 Ry
     Harris-Foulkes estimate   =    -364.90444782 Ry
     estimated scf accuracy    <       0.01152543 Ry

     iteration #  3     ecut=    80.00 Ry     beta= 0.70
     Davidson diagonalization with overlap
     ethr =  1.82E-05,  avg # of iterations =  3.5

     total cpu time spent up to now is      539.1 secs

     total energy              =    -364.90170925 Ry
     Harris-Foulkes estimate   =    -364.90254958 Ry
     estimated scf accuracy    <       0.00226409 Ry

     iteration #  4     ecut=    80.00 Ry     beta= 0.70
     Davidson diagonalization with overlap
     ethr =  5.15E-06,  avg # of iterations =  3.0

     total cpu time spent up to now is      567.2 secs

     total energy              =    -364.90208002 Ry
     Harris-Foulkes estimate   =    -364.90209270 Ry
     estimated scf accuracy    <       0.00002695 Ry

     iteration #  5     ecut=    80.00 Ry     beta= 0.70
     Davidson diagonalization with overlap
     ethr =  6.13E-08,  avg # of iterations =  3.4

     total cpu time spent up to now is      604.1 secs

     total energy              =    -364.90209462 Ry
     Harris-Foulkes estimate   =    -364.90209598 Ry
     estimated scf accuracy    <       0.00000270 Ry

     iteration #  6     ecut=    80.00 Ry     beta= 0.70
     Davidson diagonalization with overlap
     ethr =  6.15E-09,  avg # of iterations =  3.3

     total cpu time spent up to now is      638.5 secs

     total energy              =    -364.90209503 Ry
     Harris-Foulkes estimate   =    -364.90209647 Ry
     estimated scf accuracy    <       0.00000376 Ry

     iteration #  7     ecut=    80.00 Ry     beta= 0.70
     Davidson diagonalization with overlap
     ethr =  6.15E-09,  avg # of iterations =  3.0

     total cpu time spent up to now is      669.0 secs

     total energy              =    -364.90209570 Ry
     Harris-Foulkes estimate   =    -364.90209571 Ry
     estimated scf accuracy    <       0.00000002 Ry

     iteration #  8     ecut=    80.00 Ry     beta= 0.70
     Davidson diagonalization with overlap
     ethr =  3.71E-11,  avg # of iterations =  3.9

     total cpu time spent up to now is      711.6 secs

     End of self-consistent calculation

          k = 0.0500 0.0500 0.0500 (  4412 PWs)   bands (ev):

   -43.3863 -19.7762 -19.7433 -19.7432  -5.6925  -4.3849  -4.3532  -2.4293
    -2.4223  -2.4217  -2.2777  -2.2759   7.0498   8.6423   8.6556   8.9882
    10.9729  10.9881  11.1391  11.6579  11.7689  11.8965  14.9794  15.2121
    15.2125  17.8644

          k = 0.0500 0.0500 0.1500 (  4426 PWs)   bands (ev):

   -43.3858 -19.7756 -19.7643 -19.7424  -5.5785  -4.3434  -4.3004  -2.4448
    -2.4367  -2.4209  -2.3208  -2.2636   6.5442   8.6969   8.7254   9.3385
    10.7551  10.8117  11.1421  11.4968  11.6039  11.8775  15.2120  15.3842
    15.4768  17.9236

          k = 0.0500 0.0500 0.2500 (  4426 PWs)   bands (ev):

   -43.3850 -19.7986 -19.7739 -19.7411  -5.3898  -4.2757  -4.2088  -2.4742
    -2.4579  -2.4192  -2.3913  -2.2449   6.0084   8.7490   8.8533   9.2077
    10.4900  10.5528  11.0931  11.4505  11.6551  11.9853  15.2124  15.9620
    15.9928  17.9193

          k = 0.0500 0.0500 0.3500 (  4413 PWs)   bands (ev):

   -43.3843 -19.8321 -19.7727 -19.7398  -5.1951  -4.2030  -4.1124  -2.5200
    -2.4770  -2.4517  -2.4175  -2.2283   5.6306   8.3734   8.9969   9.1853
    10.1700  10.2480  11.0267  11.4802  11.7647  12.5773  15.2110  16.4967
    16.5263  17.2762

          k = 0.0500 0.0500 0.4500 (  4412 PWs)   bands (ev):

   -43.3838 -19.8527 -19.7719 -19.7390  -5.0715  -4.1545  -4.0509  -2.5638
    -2.4889  -2.4763  -2.4165  -2.2191   5.4518   7.9757   9.1035   9.3550
     9.9215  10.0189  10.9834  11.5160  11.8088  13.2009  15.2062  16.4026
    16.8230  16.8606

          k = 0.0500 0.1500 0.1500 (  4414 PWs)   bands (ev):

   -43.3853 -19.7969 -19.7635 -19.7416  -5.4608  -4.2950  -4.2634  -2.4597
    -2.4429  -2.4339  -2.3098  -2.2803   6.2069   8.6421   8.7609   9.5807
    10.4498  10.6481  11.1509  11.3147  11.5788  11.8777  15.3802  15.5810
    15.7800  18.1846

          k = 0.0500 0.1500 0.2500 (  4417 PWs)   bands (ev):

   -43.3846 -19.7985 -19.7942 -19.7403  -5.2782  -4.2421  -4.1695  -2.4904
    -2.4599  -2.4333  -2.3433  -2.2646   5.7815   8.6138   8.8734   9.3813
    10.2052  10.4136  10.9877  11.3596  11.4519  12.1629  15.5725  15.9694
    16.2036  18.2429

          k = 0.0500 0.1500 0.3500 (  4407 PWs)   bands (ev):

   -43.3838 -19.8310 -19.7938 -19.7389  -5.0946  -4.1845  -4.0677  -2.5242
    -2.4753  -2.4324  -2.3796  -2.2484   5.4493   8.3356   8.9304   9.2598
     9.9162  10.1728  11.0141  11.3420  11.4624  12.6192  15.5656  16.5022
    16.6689  17.4564

          k = 0.0500 0.1500 0.4500 (  4414 PWs)   bands (ev):

   -43.3833 -19.8514 -19.7929 -19.7381  -4.9816  -4.1452  -4.0004  -2.5489
    -2.4874  -2.4317  -2.3941  -2.2420   5.2825   7.9833   8.9526   9.4498
     9.7068   9.9308  11.0848  11.3180  11.4894  12.9785  15.5490  16.8138
    16.8655  16.9715

          k = 0.0500 0.2500 0.2500 (  4413 PWs)   bands (ev):

   -43.3838 -19.8296 -19.7956 -19.7389  -5.1045  -4.1847  -4.0910  -2.4996
    -2.4634  -2.4495  -2.2961  -2.2911   5.4512   8.5018   8.9391   9.2160
    10.0048  10.0560  10.6465  11.3201  11.6114  12.3676  15.9447  16.1310
    16.5618  18.1631

          k = 0.0500 0.2500 0.3500 (  4411 PWs)   bands (ev):

   -43.3830 -19.8302 -19.8267 -19.7375  -4.9553  -4.1249  -3.9852  -2.5128
    -2.4746  -2.4522  -2.3060  -2.2637   5.1734   8.2985   8.8665   9.0793
     9.6886  10.0385  10.4965  11.2210  11.7614  12.5072  16.1001  16.4927
    16.9137  17.7795

          k = 0.0500 0.2500 0.4500 (  4413 PWs)   bands (ev):

   -43.3826 -19.8495 -19.8267 -19.7367  -4.8744  -4.0752  -3.9129  -2.5251
    -2.4862  -2.4535  -2.2900  -2.2623   5.0234   7.9974   8.8785   8.9971
     9.6676   9.9190  10.4874  11.2144  11.7947  12.5757  16.0912  16.8041
    17.1580  17.5478

          k = 0.0500 0.3500 0.3500 (  4414 PWs)   bands (ev):

   -43.3823 -19.8614 -19.8272 -19.7361  -4.8573  -4.0086  -3.8955  -2.5085
    -2.4787  -2.4623  -2.3205  -2.1964   4.9197   8.2003   8.4704   9.0934
     9.4593   9.9398  10.3355  11.0840  12.0715  12.3014  16.4594  16.6365
    17.1658  18.1194

          k = 0.0500 0.3500 0.4500 (  4415 PWs)   bands (ev):

   -43.3818 -19.8602 -19.8475 -19.7352  -4.8219  -3.9283  -3.8179  -2.5123
    -2.4852  -2.4678  -2.3272  -2.1509   4.7820   8.0033   8.3396   9.0520
     9.3554  10.0438  10.2003  11.0162  12.0659  12.2740  16.6201  16.7843
    17.3684  18.2077

          k = 0.0500 0.4500 0.4500 (  4422 PWs)   bands (ev):

   -43.3813 -19.8807 -19.8463 -19.7344  -4.8119  -3.8008  -3.7567  -2.5136
    -2.4842  -2.4757  -2.3493  -2.0822   4.6409   7.8798   8.1051   9.0969
     9.1667  10.0309  10.2117  10.9210  11.7928  12.4732  16.7665  16.9476
    17.5194  18.5827

          k = 0.1500 0.1500 0.1500 (  4416 PWs)   bands (ev):

   -43.3849 -19.7960 -19.7629 -19.7622  -5.3500  -4.2571  -4.2261  -2.4672
    -2.4639  -2.4346  -2.2898  -2.2882   5.9898   8.5965   8.6247   9.7545
    10.2853  10.3551  11.2739  11.3437  11.4840  11.8016  15.6721  15.7665
    15.7898  18.7962

          k = 0.1500 0.1500 0.2500 (  4412 PWs)   bands (ev):

   -43.3841 -19.7976 -19.7933 -19.7612  -5.1714  -4.2120  -4.1413  -2.4987
    -2.4634  -2.4323  -2.3130  -2.2632   5.6619   8.5212   8.5915   9.4399
    10.0107  10.2314  11.1203  11.4040  11.4853  12.0660  15.7360  16.1229
    16.2074  18.2380

          k = 0.1500 0.1500 0.3500 (  4414 PWs)   bands (ev):

   -43.3833 -19.8299 -19.7930 -19.7597  -4.9961  -4.1700  -4.0397  -2.5222
    -2.4531  -2.4270  -2.3468  -2.2475   5.3754   8.3086   8.5262   9.1040
     9.8380  10.2956  10.7955  11.4664  11.5266  12.4592  15.6650  16.5562
    16.6664  17.6309

          k = 0.1500 0.1500 0.4500 (  4399 PWs)   bands (ev):

   -43.3828 -19.8503 -19.7921 -19.7589  -4.8911  -4.1438  -3.9680  -2.5315
    -2.4450  -2.4188  -2.3733  -2.2439   5.2227   7.9906   8.4486   9.1385
     9.7745  10.2949  10.6344  11.4894  11.5466  12.6787  15.5924  16.8393
    16.9648  17.3447

          k = 0.1500 0.2500 0.2500 (  4409 PWs)   bands (ev):

   -43.3833 -19.8286 -19.7947 -19.7597  -4.9911  -4.1579  -4.0950  -2.5010
    -2.4746  -2.4193  -2.2712  -2.2669   5.4372   8.3574   8.4364   9.2256
     9.5909  10.0652  11.1620  11.3197  11.6474  12.1627  16.0045  16.2114
    16.4910  17.9692

          k = 0.1500 0.2500 0.3500 (  4415 PWs)   bands (ev):

   -43.3826 -19.8292 -19.8258 -19.7583  -4.8389  -4.1301  -3.9930  -2.5066
    -2.4621  -2.4043  -2.2764  -2.2427   5.2189   8.1997   8.3591   8.7693
     9.3479  10.1318  10.9850  11.3109  11.7921  12.2134  16.0229  16.5067
    16.8210  17.9228

          k = 0.1500 0.2500 0.4500 (  4413 PWs)   bands (ev):

   -43.3821 -19.8484 -19.8259 -19.7574  -4.7572  -4.1093  -3.9154  -2.5057
    -2.4509  -2.3978  -2.2661  -2.2447   5.0909   7.9921   8.2137   8.6508
     9.3126  10.2400  10.7488  11.3807  11.8305  12.1751  15.9961  16.7748
    17.0766  17.9841

          k = 0.1500 0.3500 0.3500 (  4422 PWs)   bands (ev):

   -43.3818 -19.8605 -19.8262 -19.7569  -4.7275  -4.0367  -3.9384  -2.4976
    -2.4501  -2.3833  -2.2774  -2.1782   5.0390   8.0801   8.2432   8.4912
     8.8304  10.1079  11.0658  11.1581  11.8538  12.1089  16.3224  16.6071
    17.0371  18.2697

          k = 0.1500 0.3500 0.4500 (  4413 PWs)   bands (ev):

   -43.3813 -19.8593 -19.8465 -19.7560  -4.6898  -3.9883  -3.8625  -2.4919
    -2.4280  -2.3809  -2.2865  -2.1332   4.9312   7.9793   8.1774   8.2542
     8.6854  10.1753  10.9538  11.1705  11.5689  12.2508  16.4891  16.7411
    17.2343  18.5551

          k = 0.1500 0.4500 0.4500 (  4431 PWs)   bands (ev):

   -43.3809 -19.8798 -19.8454 -19.7551  -4.6785  -3.8721  -3.8312  -2.4854
    -2.3937  -2.3649  -2.3240  -2.0627   4.8232   7.8465   8.0666   8.2689
     8.3521  10.1858  10.9912  11.0731  11.1896  12.4600  16.7205  16.8458
    17.3725  18.9120

          k = 0.2500 0.2500 0.2500 (  4401 PWs)   bands (ev):

   -43.3826 -19.8271 -19.7936 -19.7928  -4.8178  -4.1140  -4.0868  -2.4815
    -2.4803  -2.3833  -2.2397  -2.2347   5.3726   8.0720   8.1209   9.1230
     9.3714   9.4933  11.4883  11.5940  11.7582  11.8601  15.9975  16.4532
    16.4764  17.9825

          k = 0.2500 0.2500 0.3500 (  4405 PWs)   bands (ev):

   -43.3818 -19.8276 -19.8243 -19.7916  -4.6687  -4.1165  -4.0003  -2.4759
    -2.4532  -2.3373  -2.2208  -2.2118   5.2613   7.8328   8.0025   8.5690
     9.1592   9.4796  11.3897  11.6314  11.7635  11.9187  16.0396  16.5738
    16.8197  18.2348

          k = 0.2500 0.2500 0.4500 (  4423 PWs)   bands (ev):

   -43.3813 -19.8467 -19.8245 -19.7907  -4.5949  -4.1219  -3.9203  -2.4684
    -2.4361  -2.2865  -2.2186  -2.2109   5.1774   7.6844   7.9707   8.1807
     9.1297   9.5296  11.1428  11.6708  11.7024  11.9849  16.1285  16.7338
    17.0772  18.5444

          k = 0.2500 0.3500 0.3500 (  4421 PWs)   bands (ev):

   -43.3810 -19.8590 -19.8247 -19.7902  -4.5214  -4.0691  -4.0015  -2.4559
    -2.4229  -2.2821  -2.1944  -2.1425   5.2395   7.6114   7.7253   8.3940
     8.6306   9.3407  10.9862  11.7169  11.8014  12.1076  16.2609  16.7188
    16.9765  18.6289

          k = 0.2500 0.3500 0.4500 (  4433 PWs)   bands (ev):

   -43.3806 -19.8579 -19.8450 -19.7893  -4.4766  -4.0673  -3.9274  -2.4454
    -2.3961  -2.2376  -2.1932  -2.0980   5.2051   7.5029   7.6703   8.0458
     8.4970   9.3613  10.5783  11.7476  11.7850  12.2475  16.5040  16.7717
    17.1738  19.0304

          k = 0.2500 0.4500 0.4500 (  4435 PWs)   bands (ev):

   -43.3801 -19.8783 -19.8439 -19.7884  -4.4578  -3.9704  -3.9331  -2.4356
    -2.3607  -2.2051  -2.1856  -2.0249   5.1847   7.4502   7.5500   7.9213
     8.1518   9.3427  10.0806  11.7428  11.8210  12.4427  16.7656  16.8637
    17.2959  19.4057

          k = 0.3500 0.3500 0.3500 (  4422 PWs)   bands (ev):

   -43.3803 -19.8574 -19.8233 -19.8230  -4.3502  -4.0673  -4.0466  -2.4097
    -2.4050  -2.1863  -2.1076  -2.0985   5.4308   7.2764   7.3139   8.3134
     8.5956   8.6267  10.2228  12.0433  12.0890  12.1757  16.4630  16.9535
    16.9692  19.0688

          k = 0.3500 0.3500 0.4500 (  4433 PWs)   bands (ev):

   -43.3798 -19.8564 -19.8434 -19.8222  -4.2970  -4.0947  -3.9858  -2.3983
    -2.3785  -2.1145  -2.0842  -2.0487   5.5219   7.0795   7.2278   8.0147
     8.4277   8.6289   9.6614  12.0897  12.1892  12.3063  16.7287  16.9347
    17.1817  19.5077

          k = 0.3500 0.4500 0.4500 (  4431 PWs)   bands (ev):

   -43.3794 -19.8768 -19.8424 -19.8213  -4.2325  -4.0533  -4.0199  -2.3854
    -2.3540  -2.0560  -2.0345  -1.9767   5.7025   6.9622   7.0255   7.8772
     8.1464   8.5626   8.9872  12.2076  12.2750  12.4267  16.9687  17.0532
    17.2638  19.9159

          k = 0.4500 0.4500 0.4500 (  4413 PWs)   bands (ev):

   -43.3789 -19.8758 -19.8415 -19.8415  -4.1193  -4.0750  -4.0641  -2.3555
    -2.3499  -1.9655  -1.9451  -1.9407   6.2320   6.7282   6.7509   7.8000
     8.0855   8.1586   8.1691  12.4107  12.4190  12.4746  17.1797  17.2445
    17.2516  20.3276

          k =-0.0500 0.1500 0.0500 (  4426 PWs)   bands (ev):

   -43.3858 -19.7977 -19.7425 -19.7424  -5.5727  -4.3298  -4.3145  -2.4393
    -2.4351  -2.4280  -2.3201  -2.2648   6.5381   8.6936   8.6977   9.3448
    10.7361  10.7747  11.1448  11.4516  11.7717  11.8147  14.9794  15.5721
    15.5819  17.8650

          k =-0.0500 0.2500 0.0500 (  4426 PWs)   bands (ev):

   -43.3850 -19.8321 -19.7411 -19.7410  -5.3738  -4.2478  -4.2380  -2.4711
    -2.4544  -2.4264  -2.3914  -2.2457   5.9938   8.7506   8.7865   9.1672
    10.4444  10.4684  11.0953  11.5225  11.8015  12.0046  14.9794  16.1142
    16.1310  17.8659

          k =-0.0500 0.3500 0.0500 (  4413 PWs)   bands (ev):

   -43.3843 -19.8662 -19.7398 -19.7397  -5.1679  -4.1747  -4.1426  -2.5210
    -2.4721  -2.4507  -2.4246  -2.2285   5.6084   8.3528   8.8737   9.0636
    10.1893  10.2011  11.0329  11.6769  11.8482  12.6198  14.9782  16.6290
    16.6466  17.3205

          k =-0.0500 0.4500 0.0500 (  4412 PWs)   bands (ev):

   -43.3838 -19.8871 -19.7389 -19.7389  -5.0368  -4.1256  -4.0817  -2.5677
    -2.4823  -2.4755  -2.4235  -2.2189   5.4255   7.9207   8.9260   9.1504
    10.0098  10.0677  10.9927  11.7408  11.8829  13.2480  14.9741  16.4451
    16.9403  16.9599

          k = 0.1500 0.0500 0.1500 (  4414 PWs)   bands (ev):

   -43.3853 -19.7749 -19.7637 -19.7631  -5.4676  -4.3064  -4.2500  -2.4643
    -2.4377  -2.4328  -2.3115  -2.2800   6.2140   8.6405   8.7834   9.5842
    10.4872  10.5545  11.1908  11.4334  11.4734  11.9093  15.4493  15.4988
    15.6982  18.2372

          k =-0.0500 0.2500 0.1500 (  4417 PWs)   bands (ev):

   -43.3846 -19.8311 -19.7620 -19.7402  -5.2683  -4.2259  -4.1861  -2.4902
    -2.4540  -2.4398  -2.3433  -2.2652   5.7723   8.5945   8.8373   9.3729
    10.1363  10.4024  11.0037  11.3478  11.5773  12.1847  15.3793  16.1226
    16.2572  18.2468

          k = 0.2500 0.0500 0.1500 (  4417 PWs)   bands (ev):

   -43.3846 -19.7976 -19.7732 -19.7619  -5.2870  -4.2461  -4.1603  -2.4918
    -2.4545  -2.4334  -2.3470  -2.2655   5.7880   8.6182   8.8776   9.3960
    10.1447  10.3933  11.0028  11.3785  11.5811  12.1292  15.4690  15.9801
    16.1868  18.3092

          k =-0.0500 0.3500 0.1500 (  4407 PWs)   bands (ev):

   -43.3838 -19.8651 -19.7606 -19.7389  -5.0748  -4.1589  -4.0930  -2.5258
    -2.4683  -2.4393  -2.3799  -2.2486   5.4311   8.2948   8.8193   9.2017
     9.9004  10.1858  11.0658  11.3346  11.6115  12.6652  15.3698  16.6365
    16.7199  17.5139

          k = 0.3500 0.0500 0.1500 (  4407 PWs)   bands (ev):

   -43.3838 -19.8310 -19.7720 -19.7605  -5.1067  -4.1794  -4.0631  -2.5237
    -2.4689  -2.4324  -2.3872  -2.2491   5.4540   8.3422   8.9057   9.2790
     9.8656  10.2332  10.9090  11.3525  11.6415  12.6059  15.4602  16.5036
    16.6633  17.4782

          k =-0.0500 0.4500 0.1500 (  4414 PWs)   bands (ev):

   -43.3833 -19.8859 -19.7597 -19.7380  -4.9560  -4.1128  -4.0307  -2.5526
    -2.4796  -2.4387  -2.3943  -2.2418   5.2590   7.9156   8.7957   9.3032
     9.7441  10.0420  11.1501  11.3056  11.6413  13.0363  15.3522  16.8557
    16.9492  17.0707

          k = 0.4500 0.0500 0.1500 (  4414 PWs)   bands (ev):

   -43.3833 -19.8515 -19.7712 -19.7596  -4.9966  -4.1326  -3.9996  -2.5482
    -2.4798  -2.4316  -2.4043  -2.2424   5.2858   7.9852   8.9291   9.4412
     9.6898  10.0047  10.9473  11.3244  11.6755  12.9862  15.4424  16.8258
    16.8801  16.9584

          k = 0.2500 0.0500 0.2500 (  4413 PWs)   bands (ev):

   -43.3838 -19.7968 -19.7951 -19.7715  -5.1290  -4.1889  -4.0727  -2.4986
    -2.4589  -2.4477  -2.3014  -2.2946   5.4655   8.5313   8.9384   9.2617
     9.9529   9.9652  10.7739  11.3760  11.6682  12.3033  15.9119  16.0324
    16.5388  18.1987

          k =-0.0500 0.3500 0.2500 (  4411 PWs)   bands (ev):

   -43.3830 -19.8633 -19.7940 -19.7375  -4.9470  -4.1063  -4.0013  -2.5137
    -2.4695  -2.4575  -2.3060  -2.2637   5.1632   8.2430   8.8389   9.0441
     9.7398  10.0002  10.5293  11.2892  11.7355  12.5503  15.9378  16.6363
    16.9158  17.8366

          k = 0.3500 0.0500 0.2500 (  4411 PWs)   bands (ev):

   -43.3830 -19.8292 -19.7943 -19.7702  -4.9876  -4.1093  -3.9758  -2.5101
    -2.4680  -2.4519  -2.3116  -2.2715   5.1838   8.3186   8.8346   9.0967
     9.6886   9.9975  10.5467  11.3208  11.7951  12.4905  15.9521  16.5047
    16.8975  17.8061

          k =-0.0500 0.4500 0.2500 (  4413 PWs)   bands (ev):

   -43.3826 -19.8839 -19.7930 -19.7366  -4.8626  -4.0397  -3.9417  -2.5280
    -2.4786  -2.4603  -2.2898  -2.2622   5.0064   7.9113   8.7671   9.0313
     9.6907   9.9220  10.5330  11.3007  11.7504  12.6473  15.9245  16.9495
    17.1214  17.6651

          k = 0.4500 0.0500 0.2500 (  4413 PWs)   bands (ev):

   -43.3826 -19.8496 -19.7933 -19.7694  -4.9120  -4.0446  -3.9110  -2.5228
    -2.4784  -2.4534  -2.2952  -2.2725   5.0304   8.0038   8.8557   8.9778
     9.7331   9.9312  10.4335  11.3357  11.8020  12.6054  15.9433  16.8363
    17.1335  17.5662

          k = 0.3500 0.0500 0.3500 (  4414 PWs)   bands (ev):

   -43.3823 -19.8279 -19.8269 -19.7689  -4.9055  -3.9899  -3.8794  -2.5036
    -2.4741  -2.4592  -2.3231  -2.2120   4.9344   8.3076   8.4134   9.1069
     9.3996   9.9569  10.4192  11.0986  12.1494  12.2579  16.4364  16.5463
    17.1461  18.1084

          k =-0.0500 0.4500 0.3500 (  4415 PWs)   bands (ev):

   -43.3818 -19.8820 -19.8260 -19.7352  -4.8190  -3.9002  -3.8411  -2.5138
    -2.4797  -2.4730  -2.3271  -2.1508   4.7743   7.9095   8.4062   8.9921
     9.4424   9.9165  10.3009  11.0409  12.0002  12.3498  16.4572  16.9484
    17.3453  18.3143

          k = 0.4500 0.0500 0.3500 (  4415 PWs)   bands (ev):

   -43.3818 -19.8476 -19.8262 -19.7681  -4.8733  -3.8908  -3.8143  -2.5078
    -2.4776  -2.4672  -2.3299  -2.1685   4.7912   8.0237   8.3815   8.9887
     9.3631  10.0550  10.2819  11.0290  12.0437  12.3561  16.4852  16.8369
    17.3270  18.2253

          k = 0.4500 0.0500 0.4500 (  4422 PWs)   bands (ev):

   -43.3813 -19.8465 -19.8464 -19.7673  -4.8671  -3.7675  -3.7494  -2.5078
    -2.4774  -2.4738  -2.3532  -2.1018   4.6511   7.9656   8.1205   9.0633
     9.0930  10.1703  10.2413  10.8638  11.8173  12.5264  16.8268  16.8457
    17.4541  18.5908

          k =-0.1500 0.2500 0.1500 (  4412 PWs)   bands (ev):

   -43.3841 -19.8302 -19.7615 -19.7609  -5.1597  -4.1864  -4.1702  -2.4984
    -2.4652  -2.4327  -2.3105  -2.2640   5.6520   8.5069   8.5614   9.4257
    10.0480  10.2074  11.0194  11.4239  11.5592  12.0940  15.6440  16.2141
    16.2536  18.2531

          k =-0.1500 0.3500 0.1500 (  4414 PWs)   bands (ev):

   -43.3833 -19.8640 -19.7599 -19.7595  -4.9721  -4.1453  -4.0706  -2.5243
    -2.4568  -2.4246  -2.3430  -2.2481   5.3565   8.2966   8.3986   9.1113
     9.9137  10.2104  10.7933  11.4539  11.6117  12.5062  15.5682  16.6793
    16.6803  17.6676

          k =-0.1500 0.4500 0.1500 (  4399 PWs)   bands (ev):

   -43.3828 -19.8847 -19.7590 -19.7586  -4.8597  -4.1191  -3.9997  -2.5355
    -2.4511  -2.4129  -2.3688  -2.2444   5.1984   7.9247   8.3250   9.1547
     9.8611  10.1641  10.7127  11.4577  11.6418  12.7341  15.4928  16.9395
    16.9770  17.4139

          k = 0.2500 0.1500 0.2500 (  4409 PWs)   bands (ev):

   -43.3833 -19.7972 -19.7942 -19.7913  -5.0072  -4.1657  -4.0779  -2.4994
    -2.4731  -2.4187  -2.2764  -2.2664   5.4469   8.3681   8.4500   9.2374
     9.5821  10.0410  11.2460  11.3089  11.6928  12.0908  16.0065  16.1679
    16.4686  17.9711

          k =-0.1500 0.3500 0.2500 (  4415 PWs)   bands (ev):

   -43.3826 -19.8622 -19.7931 -19.7583  -4.8283  -4.1076  -4.0165  -2.5079
    -2.4650  -2.4002  -2.2750  -2.2440   5.2081   8.1461   8.3238   8.7565
     9.4510  10.0864  10.8966  11.4172  11.7732  12.2535  15.9312  16.6062
    16.8205  17.9474

          k = 0.3500 0.1500 0.2500 (  4415 PWs)   bands (ev):

   -43.3826 -19.8282 -19.7944 -19.7903  -4.8612  -4.1181  -3.9876  -2.5042
    -2.4617  -2.4001  -2.2799  -2.2483   5.2263   8.1950   8.3741   8.7461
     9.4063  10.0882  10.9754  11.3848  11.8141  12.1929  15.9614  16.5173
    16.8049  17.9279

          k =-0.1500 0.4500 0.2500 (  4413 PWs)   bands (ev):

   -43.3821 -19.8829 -19.7921 -19.7574  -4.7420  -4.0773  -3.9466  -2.5086
    -2.4562  -2.3882  -2.2668  -2.2452   5.0729   7.9063   8.1250   8.7004
     9.4387  10.1542  10.6989  11.4759  11.7912  12.2496  15.8953  16.8860
    17.0682  18.0512

          k = 0.4500 0.1500 0.2500 (  4413 PWs)   bands (ev):

   -43.3821 -19.8485 -19.7935 -19.7894  -4.7842  -4.0869  -3.9145  -2.5035
    -2.4516  -2.3886  -2.2732  -2.2512   5.0960   7.9956   8.1988   8.6432
     9.3882  10.1858  10.7411  11.4416  11.8138  12.2146  15.9282  16.7955
    17.0602  17.9914

          k = 0.3500 0.1500 0.3500 (  4422 PWs)   bands (ev):

   -43.3818 -19.8269 -19.8259 -19.7900  -4.7695  -4.0210  -3.9232  -2.4929
    -2.4489  -2.3793  -2.2766  -2.1932   5.0530   8.1381   8.2224   8.4926
     8.8496  10.0849  11.1379  11.1411  11.8258  12.1513  16.3028  16.5606
    17.0218  18.2641

          k =-0.1500 0.4500 0.3500 (  4413 PWs)   bands (ev):

   -43.3813 -19.8810 -19.8251 -19.7560  -4.6864  -3.9573  -3.8904  -2.4931
    -2.4326  -2.3724  -2.2893  -2.1330   4.9229   7.8683   8.1727   8.2897
     8.7691  10.1403  10.8897  11.2533  11.5676  12.2647  16.3880  16.8529
    17.2240  18.5996

          k = 0.4500 0.1500 0.3500 (  4413 PWs)   bands (ev):

   -43.3813 -19.8466 -19.8253 -19.7891  -4.7358  -3.9535  -3.8605  -2.4872
    -2.4292  -2.3715  -2.2872  -2.1506   4.9403   7.9991   8.1797   8.2368
     8.7475  10.1394  10.9443  11.2276  11.5495  12.3117  16.4085  16.7668
    17.2141  18.5636

          k = 0.4500 0.1500 0.4500 (  4431 PWs)   bands (ev):

   -43.3809 -19.8456 -19.8454 -19.7883  -4.7295  -3.8410  -3.8246  -2.4798
    -2.3918  -2.3596  -2.3238  -2.0823   4.8343   7.9504   8.0713   8.2447
     8.3357  10.1702  11.0282  11.0694  11.1854  12.5164  16.7377  16.7819
    17.3519  18.9108

          k =-0.2500 0.3500 0.2500 (  4405 PWs)   bands (ev):

   -43.3818 -19.8606 -19.7920 -19.7913  -4.6516  -4.0965  -4.0298  -2.4787
    -2.4543  -2.3356  -2.2156  -2.2136   5.2498   7.7812   8.0346   8.5068
     9.2911   9.4079  11.2937  11.7091  11.8083  11.8866  16.0112  16.6329
    16.8160  18.2422

          k =-0.2500 0.4500 0.2500 (  4423 PWs)   bands (ev):

   -43.3813 -19.8811 -19.7910 -19.7904  -4.5690  -4.1028  -3.9522  -2.4725
    -2.4386  -2.2813  -2.2213  -2.2047   5.1581   7.6121   7.9254   8.2135
     9.2663   9.4395  11.0740  11.7287  11.7431  11.9546  16.0834  16.8149
    17.0775  18.5786

          k = 0.3500 0.2500 0.3500 (  4421 PWs)   bands (ev):

   -43.3810 -19.8267 -19.8245 -19.8222  -4.5491  -4.0611  -3.9879  -2.4515
    -2.4249  -2.2787  -2.1896  -2.1552   5.2499   7.6359   7.7010   8.4409
     8.6403   9.2990  10.9993  11.7377  11.7476  12.1563  16.2543  16.6927
    16.9751  18.6283

          k =-0.2500 0.4500 0.3500 (  4433 PWs)   bands (ev):

   -43.3806 -19.8794 -19.8237 -19.7892  -4.4704  -4.0381  -3.9574  -2.4467
    -2.3979  -2.2314  -2.1961  -2.0972   5.1950   7.4276   7.7473   7.9771
     8.5777   9.3316  10.5796  11.7124  11.8276  12.2435  16.4562  16.8369
    17.1704  19.0341

          k = 0.4500 0.2500 0.3500 (  4433 PWs)   bands (ev):

   -43.3806 -19.8450 -19.8249 -19.8218  -4.5101  -4.0400  -3.9266  -2.4413
    -2.3992  -2.2281  -2.1903  -2.1139   5.2126   7.4826   7.6942   8.0451
     8.5645   9.3012  10.5867  11.7393  11.7752  12.2986  16.4739  16.7747
    17.1696  19.0322

          k = 0.4500 0.2500 0.4500 (  4435 PWs)   bands (ev):

   -43.3801 -19.8441 -19.8439 -19.8220  -4.5012  -3.9420  -3.9276  -2.4305
    -2.3644  -2.1949  -2.1818  -2.0443   5.1974   7.4942   7.5221   7.9581
     8.1697   9.2861  10.0948  11.7755  11.7773  12.5003  16.7630  16.8298
    17.2926  19.4091

          k =-0.3500 0.4500 0.3500 (  4433 PWs)   bands (ev):

   -43.3798 -19.8778 -19.8223 -19.8220  -4.2771  -4.0804  -4.0155  -2.4021
    -2.3758  -2.1224  -2.0802  -2.0421   5.5088   7.0401   7.2803   7.9449
     8.5196   8.5858   9.6663  12.1492  12.1514  12.2709  16.7124  16.9728
    17.1777  19.4956

          k = 0.4500 0.3500 0.4500 (  4431 PWs)   bands (ev):

   -43.3794 -19.8554 -19.8424 -19.8424  -4.2662  -4.0282  -4.0153  -2.3807
    -2.3582  -2.0437  -2.0310  -1.9947   5.7161   6.9755   7.0045   7.9164
     8.1670   8.5054   8.9931  12.2196  12.2231  12.4844  16.9675  17.0382
    17.2644  19.9235

     the Fermi energy is    13.3325 ev

!    total energy              =    -364.90209572 Ry
     Harris-Foulkes estimate   =    -364.90209572 Ry
     estimated scf accuracy    <          2.7E-09 Ry

     The total energy is the sum of the following terms:

     one-electron contribution =     -64.10325933 Ry
     hartree contribution      =      65.41360222 Ry
     xc contribution           =     -86.30330418 Ry
     ewald contribution        =    -279.91017361 Ry
     smearing contrib. (-TS)   =       0.00103918 Ry

     convergence has been achieved in   8 iterations

     Forces acting on atoms (cartesian axes, Ry/au):

     atom    1 type  1   force =     0.00000000    0.01918876    0.00000000
     atom    2 type  2   force =     0.00000000   -0.02742537    0.00000000
     atom    3 type  3   force =     0.00000000    0.00277502    0.00000000
     atom    4 type  3   force =     0.00000000    0.00268657    0.00000000
     atom    5 type  3   force =     0.00000000    0.00277502    0.00000000

     Total force =     0.027835     Total SCF correction =     0.000097


     Computing stress (Cartesian axis) and pressure

          total   stress  (Ry/bohr**3)                   (kbar)     P=  331.45
   0.00221850   0.00000000   0.00000000        326.35      0.00      0.00
   0.00000000   0.00232240   0.00000000          0.00    341.64      0.00
   0.00000000   0.00000000   0.00221850          0.00      0.00    326.35


     number of scf cycles    =   2
     number of bfgs steps    =   1

     energy   old            =    -364.8920072869 Ry
     energy   new            =    -364.9020957188 Ry

     CASE: energy  _new < energy  _old

     new trust radius        =       0.0349032641 bohr
     new conv_thr            =       0.0000000027 Ry


ATOMIC_POSITIONS (crystal)
Pb       0.000000000   0.000000000   0.000000000    0   0   0
Ti       0.500000000   0.528908527   0.500000000
O        0.500000000   0.499350436   0.000000000
O        0.500000000   0.013508649   0.500000000
O        0.000000000   0.499350436   0.500000000



     Writing output data file PbTiO3.save/
     NEW-OLD atomic charge density approx. for the potential

     Check: negative core charge=   -0.000006

     total cpu time spent up to now is      730.8 secs

     Self-consistent Calculation

     iteration #  1     ecut=    80.00 Ry     beta= 0.70
     Davidson diagonalization with overlap
     ethr =  1.00E-06,  avg # of iterations =  4.6

     total cpu time spent up to now is      787.7 secs

     total energy              =    -364.90280799 Ry
     Harris-Foulkes estimate   =    -364.90298630 Ry
     estimated scf accuracy    <       0.00027352 Ry

     iteration #  2     ecut=    80.00 Ry     beta= 0.70
     Davidson diagonalization with overlap
     ethr =  6.22E-07,  avg # of iterations =  3.2

     total cpu time spent up to now is      820.5 secs

     total energy              =    -364.90281891 Ry
     Harris-Foulkes estimate   =    -364.90293801 Ry
     estimated scf accuracy    <       0.00021811 Ry

     iteration #  3     ecut=    80.00 Ry     beta= 0.70
     Davidson diagonalization with overlap
     ethr =  4.96E-07,  avg # of iterations =  3.1

     total cpu time spent up to now is      852.1 secs

     total energy              =    -364.90287236 Ry
     Harris-Foulkes estimate   =    -364.90290843 Ry
     estimated scf accuracy    <       0.00009487 Ry

     iteration #  4     ecut=    80.00 Ry     beta= 0.70
     Davidson diagonalization with overlap
     ethr =  2.16E-07,  avg # of iterations =  3.0

     total cpu time spent up to now is      879.5 secs

     total energy              =    -364.90288908 Ry
     Harris-Foulkes estimate   =    -364.90288955 Ry
     estimated scf accuracy    <       0.00000114 Ry

     iteration #  5     ecut=    80.00 Ry     beta= 0.70
     Davidson diagonalization with overlap
     ethr =  2.59E-09,  avg # of iterations =  4.0

     total cpu time spent up to now is      918.0 secs

     total energy              =    -364.90288986 Ry
     Harris-Foulkes estimate   =    -364.90288989 Ry
     estimated scf accuracy    <       0.00000009 Ry

     iteration #  6     ecut=    80.00 Ry     beta= 0.70
     Davidson diagonalization with overlap
     ethr =  1.97E-10,  avg # of iterations =  3.1

     total cpu time spent up to now is      949.1 secs

     total energy              =    -364.90288988 Ry
     Harris-Foulkes estimate   =    -364.90288989 Ry
     estimated scf accuracy    <       0.00000002 Ry

     iteration #  7     ecut=    80.00 Ry     beta= 0.70
     Davidson diagonalization with overlap
     ethr =  3.78E-11,  avg # of iterations =  3.0

     total cpu time spent up to now is      980.9 secs

     total energy              =    -364.90288988 Ry
     Harris-Foulkes estimate   =    -364.90288988 Ry
     estimated scf accuracy    <          4.6E-09 Ry

     iteration #  8     ecut=    80.00 Ry     beta= 0.70
     Davidson diagonalization with overlap
     ethr =  1.04E-11,  avg # of iterations =  2.9

     total cpu time spent up to now is     1010.7 secs

     End of self-consistent calculation

          k = 0.0500 0.0500 0.0500 (  4412 PWs)   bands (ev):

   -43.4062 -19.7814 -19.7641 -19.7640  -5.6928  -4.3823  -4.3642  -2.4235
    -2.4191  -2.4184  -2.2745  -2.2733   7.0554   8.6453   8.6519   8.9876
    11.0065  11.0194  11.1524  11.7072  11.7903  11.9137  14.9644  15.1207
    15.1229  17.8365

          k = 0.0500 0.0500 0.1500 (  4426 PWs)   bands (ev):

   -43.4057 -19.7856 -19.7803 -19.7633  -5.5781  -4.3418  -4.3101  -2.4393
    -2.4332  -2.4176  -2.3176  -2.2607   6.5493   8.6966   8.7219   9.3420
    10.7839  10.8282  11.1561  11.5144  11.6466  11.8828  15.1215  15.3712
    15.4292  17.8704

          k = 0.0500 0.0500 0.2500 (  4426 PWs)   bands (ev):

   -43.4049 -19.8194 -19.7792 -19.7620  -5.3882  -4.2755  -4.2164  -2.4696
    -2.4536  -2.4160  -2.3879  -2.2418   6.0136   8.7488   8.8503   9.2055
    10.4936  10.5487  11.1075  11.4867  11.6934  11.9947  15.1217  15.9502
    15.9743  17.8684

          k = 0.0500 0.0500 0.3500 (  4413 PWs)   bands (ev):

   -43.4042 -19.8530 -19.7779 -19.7606  -5.1926  -4.2039  -4.1180  -2.5162
    -2.4721  -2.4478  -2.4142  -2.2248   5.6368   8.3655   8.9895   9.1735
    10.1733  10.2320  11.0423  11.5464  11.7866  12.5878  15.1206  16.4885
    16.5144  17.2910

          k = 0.0500 0.0500 0.4500 (  4412 PWs)   bands (ev):

   -43.4037 -19.8736 -19.7771 -19.7598  -5.0684  -4.1560  -4.0549  -2.5602
    -2.4834  -2.4727  -2.4132  -2.2154   5.4595   7.9561   9.0921   9.3389
     9.9238  10.0108  10.9998  11.5885  11.8286  13.2103  15.1163  16.4158
    16.8181  16.8467

          k = 0.0500 0.1500 0.1500 (  4414 PWs)   bands (ev):

   -43.4052 -19.8020 -19.7843 -19.7624  -5.4618  -4.2956  -4.2700  -2.4561
    -2.4375  -2.4303  -2.3068  -2.2771   6.2133   8.6426   8.7660   9.5860
    10.4685  10.6675  11.1634  11.3370  11.5972  11.8718  15.3660  15.5068
    15.7364  18.1504

          k = 0.0500 0.1500 0.2500 (  4417 PWs)   bands (ev):

   -43.4045 -19.8185 -19.8003 -19.7611  -5.2783  -4.2428  -4.1746  -2.4865
    -2.4545  -2.4300  -2.3403  -2.2615   5.7876   8.6133   8.8758   9.3857
    10.1953  10.4240  10.9933  11.3761  11.4938  12.1620  15.4970  15.9601
    16.1827  18.2179

          k = 0.0500 0.1500 0.3500 (  4407 PWs)   bands (ev):

   -43.4037 -19.8519 -19.7990 -19.7598  -5.0942  -4.1841  -4.0721  -2.5203
    -2.4696  -2.4291  -2.3768  -2.2450   5.4554   8.3279   8.9227   9.2575
     9.9071  10.1768  11.0242  11.3582  11.5071  12.6251  15.4897  16.4978
    16.6552  17.4713

          k = 0.0500 0.1500 0.4500 (  4414 PWs)   bands (ev):

   -43.4032 -19.8724 -19.7981 -19.7590  -4.9812  -4.1436  -4.0043  -2.5452
    -2.4815  -2.4284  -2.3916  -2.2383   5.2893   7.9641   8.9409   9.4457
     9.6956   9.9416  11.1000  11.3314  11.5334  12.9877  15.4733  16.8150
    16.8766  16.9590

          k = 0.0500 0.2500 0.2500 (  4413 PWs)   bands (ev):

   -43.4037 -19.8347 -19.8165 -19.7597  -5.1077  -4.1868  -4.0918  -2.4954
    -2.4583  -2.4456  -2.2933  -2.2880   5.4588   8.5091   8.9509   9.2142
    10.0019  10.0560  10.6543  11.3303  11.6309  12.3599  15.9324  16.0757
    16.5443  18.1663

          k = 0.0500 0.2500 0.3500 (  4411 PWs)   bands (ev):

   -43.4029 -19.8501 -19.8328 -19.7584  -4.9591  -4.1216  -3.9880  -2.5085
    -2.4690  -2.4489  -2.3029  -2.2612   5.1796   8.2945   8.8672   9.0726
     9.6970  10.0326  10.4999  11.2413  11.7758  12.5089  16.0408  16.4903
    16.9048  17.7889

          k = 0.0500 0.2500 0.4500 (  4413 PWs)   bands (ev):

   -43.4025 -19.8705 -19.8318 -19.7575  -4.8789  -4.0681  -3.9167  -2.5211
    -2.4802  -2.4502  -2.2867  -2.2602   5.0290   7.9799   8.8764   8.9903
     9.6875   9.9110  10.4860  11.2385  11.8026  12.5866  16.0312  16.8071
    17.1508  17.5609

          k = 0.0500 0.3500 0.3500 (  4414 PWs)   bands (ev):

   -43.4022 -19.8665 -19.8481 -19.7569  -4.8649  -4.0046  -3.8948  -2.5038
    -2.4737  -2.4583  -2.3170  -2.1950   4.9263   8.2209   8.4464   9.0999
     9.4566   9.9426  10.3392  11.0807  12.0984  12.2880  16.4571  16.5908
    17.1649  18.1161

          k = 0.0500 0.3500 0.4500 (  4415 PWs)   bands (ev):

   -43.4017 -19.8686 -19.8652 -19.7561  -4.8301  -3.9172  -3.8214  -2.5079
    -2.4793  -2.4645  -2.3237  -2.1497   4.7866   7.9932   8.3398   9.0425
     9.3708  10.0361  10.2097  11.0156  12.0610  12.2957  16.5712  16.7920
    17.3690  18.2180

          k = 0.0500 0.4500 0.4500 (  4422 PWs)   bands (ev):

   -43.4012 -19.8857 -19.8673 -19.7552  -4.8214  -3.7889  -3.7594  -2.5088
    -2.4784  -2.4724  -2.3458  -2.0815   4.6450   7.8969   8.0807   9.1029
     9.1578  10.0572  10.2018  10.9059  11.7965  12.4855  16.7785  16.9036
    17.5271  18.5738

          k = 0.1500 0.1500 0.1500 (  4416 PWs)   bands (ev):

   -43.4048 -19.8012 -19.7838 -19.7831  -5.3500  -4.2539  -4.2363  -2.4624
    -2.4604  -2.4306  -2.2862  -2.2852   5.9955   8.6045   8.6223   9.7671
    10.3068  10.3505  11.3234  11.3581  11.4667  11.7869  15.6616  15.7244
    15.7447  18.7712

          k = 0.1500 0.1500 0.2500 (  4412 PWs)   bands (ev):

   -43.4040 -19.8175 -19.7995 -19.7820  -5.1699  -4.2111  -4.1487  -2.4945
    -2.4594  -2.4284  -2.3093  -2.2600   5.6668   8.5255   8.5910   9.4463
    10.0209  10.2257  11.1141  11.4255  11.5013  12.0604  15.6939  16.1155
    16.1863  18.2431

          k = 0.1500 0.1500 0.3500 (  4414 PWs)   bands (ev):

   -43.4032 -19.8508 -19.7982 -19.7806  -4.9932  -4.1702  -4.0451  -2.5184
    -2.4493  -2.4228  -2.3428  -2.2441   5.3802   8.3050   8.5174   9.1073
     9.8451  10.2892  10.7937  11.4807  11.5448  12.4618  15.6218  16.5577
    16.6499  17.6375

          k = 0.1500 0.1500 0.4500 (  4399 PWs)   bands (ev):

   -43.4028 -19.8713 -19.7973 -19.7797  -4.8876  -4.1444  -3.9721  -2.5279
    -2.4416  -2.4140  -2.3692  -2.2402   5.2278   7.9717   8.4411   9.1468
     9.7777  10.2812  10.6453  11.5003  11.5649  12.6849  15.5477  16.8439
    16.9486  17.3560

          k = 0.1500 0.2500 0.2500 (  4409 PWs)   bands (ev):

   -43.4032 -19.8338 -19.8156 -19.7806  -4.9928  -4.1597  -4.0964  -2.4967
    -2.4702  -2.4153  -2.2684  -2.2634   5.4442   8.3679   8.4422   9.2317
     9.5836  10.0524  11.1920  11.3107  11.6648  12.1478  15.9983  16.1775
    16.4709  17.9669

          k = 0.1500 0.2500 0.3500 (  4415 PWs)   bands (ev):

   -43.4025 -19.8491 -19.8319 -19.7792  -4.8403  -4.1270  -3.9969  -2.5023
    -2.4583  -2.3994  -2.2730  -2.2402   5.2246   8.1994   8.3613   8.7605
     9.3583  10.1158  10.9709  11.3405  11.8062  12.2110  15.9894  16.5054
    16.8058  17.9230

          k = 0.1500 0.2500 0.4500 (  4413 PWs)   bands (ev):

   -43.4020 -19.8694 -19.8310 -19.7783  -4.7590  -4.1039  -3.9193  -2.5017
    -2.4476  -2.3916  -2.2631  -2.2422   5.0960   7.9764   8.2042   8.6596
     9.3264  10.2225  10.7347  11.4074  11.8359  12.1873  15.9557  16.7815
    17.0623  17.9945

          k = 0.1500 0.3500 0.3500 (  4422 PWs)   bands (ev):

   -43.4017 -19.8655 -19.8472 -19.7777  -4.7336  -4.0331  -3.9377  -2.4929
    -2.4458  -2.3789  -2.2736  -2.1767   5.0456   8.1008   8.2449   8.4736
     8.8215  10.0955  11.0874  11.1479  11.8563  12.1177  16.3170  16.5793
    17.0281  18.2651

          k = 0.1500 0.3500 0.4500 (  4413 PWs)   bands (ev):

   -43.4012 -19.8676 -19.8643 -19.7769  -4.6965  -3.9777  -3.8661  -2.4874
    -2.4246  -2.3748  -2.2831  -2.1320   4.9358   7.9743   8.1817   8.2430
     8.6898  10.1587  10.9420  11.1928  11.5690  12.2673  16.4556  16.7434
    17.2269  18.5611

[...]

   -43.4245 -19.8397 -19.8379 -19.8377  -4.8128  -4.1085  -4.1080  -2.4701
    -2.4701  -2.3725  -2.2281  -2.2277   5.3872   8.1187   8.1205   9.2637
     9.3053   9.3255  11.5681  11.5710  11.7783  11.8057  16.0269  16.4240
    16.4254  17.9715

          k = 0.2500 0.2500 0.3500 (  4405 PWs)   bands (ev):

   -43.4238 -19.8716 -19.8377 -19.8364  -4.6580  -4.1174  -4.0124  -2.4661
    -2.4428  -2.3259  -2.2084  -2.2038   5.2712   7.8369   8.0287   8.5287
     9.2000   9.3620  11.3508  11.6815  11.7746  11.9211  16.0316  16.5778
    16.7909  18.2343

          k = 0.2500 0.2500 0.4500 (  4423 PWs)   bands (ev):

   -43.4233 -19.8921 -19.8367 -19.8355  -4.5825  -4.1235  -3.9276  -2.4590
    -2.4262  -2.2739  -2.2083  -2.2003   5.1845   7.6689   7.9312   8.1985
     9.1699   9.4166  11.1033  11.7175  11.7192  11.9902  16.0842  16.7709
    17.0548  18.5734

          k = 0.2500 0.3500 0.3500 (  4421 PWs)   bands (ev):

   -43.4230 -19.8709 -19.8698 -19.8352  -4.5260  -4.0663  -4.0001  -2.4438
    -2.4129  -2.2700  -2.1827  -2.1372   5.2542   7.6399   7.7280   8.4209
     8.5476   9.2613  10.9786  11.7466  11.7864  12.1397  16.2669  16.6805
    16.9610  18.6323

          k = 0.2500 0.3500 0.4500 (  4433 PWs)   bands (ev):

   -43.4226 -19.8904 -19.8697 -19.8342  -4.4833  -4.0487  -3.9337  -2.4339
    -2.3871  -2.2210  -2.1829  -2.0934   5.2132   7.4786   7.7185   7.9902
     8.4961   9.2681  10.5716  11.7562  11.7991  12.2777  16.4633  16.7833
    17.1621  19.0488

          k = 0.2500 0.4500 0.4500 (  4435 PWs)   bands (ev):

   -43.4221 -19.8901 -19.8893 -19.8333  -4.4722  -3.9485  -3.9340  -2.4234
    -2.3515  -2.1884  -2.1749  -2.0218   5.1927   7.5001   7.5305   7.9176
     8.0729   9.2621  10.0810  11.7898  11.7948  12.4741  16.7595  16.8221
    17.2993  19.4322

          k = 0.3500 0.3500 0.3500 (  4422 PWs)   bands (ev):

   -43.4223 -19.8695 -19.8683 -19.8682  -4.3407  -4.0583  -4.0577  -2.3968
    -2.3967  -2.1746  -2.0931  -2.0928   5.4412   7.3016   7.3021   8.3876
     8.4976   8.5005  10.2138  12.0824  12.0830  12.1860  16.4677  16.9382
    16.9390  19.0840

          k = 0.3500 0.3500 0.4500 (  4433 PWs)   bands (ev):

   -43.4218 -19.8888 -19.8683 -19.8673  -4.2818  -4.0912  -3.9918  -2.3888
    -2.3673  -2.1037  -2.0724  -2.0371   5.5255   7.0632   7.2518   7.9720
     8.4456   8.4932   9.6570  12.1253  12.1914  12.3057  16.7141  16.9334
    17.1618  19.5313

          k = 0.3500 0.4500 0.4500 (  4431 PWs)   bands (ev):

   -43.4213 -19.8886 -19.8878 -19.8665  -4.2382  -4.0331  -4.0208  -2.3732
    -2.3450  -2.0365  -2.0245  -1.9720   5.7107   6.9724   7.0078   7.8909
     8.0693   8.4685   8.9872  12.2470  12.2493  12.4585  16.9593  17.0269
    17.2519  19.9586

          k = 0.4500 0.4500 0.4500 (  4413 PWs)   bands (ev):

   -43.4209 -19.8877 -19.8869 -19.8868  -4.1016  -4.0696  -4.0690  -2.3422
    -2.3422  -1.9458  -1.9341  -1.9341   6.2342   6.7288   6.7293   7.8086
     8.0703   8.0717   8.1067  12.4434  12.4437  12.4553  17.1696  17.2303
    17.2308  20.3787

          k =-0.0500 0.1500 0.0500 (  4426 PWs)   bands (ev):

   -43.4277 -19.8099 -19.7870 -19.7869  -5.5757  -4.3478  -4.3269  -2.4307
    -2.4265  -2.4123  -2.3125  -2.2565   6.5605   8.7084   8.7222   9.3459
    10.8138  10.8525  11.1810  11.5229  11.8003  11.8335  14.9496  15.3659
    15.3688  17.7926

          k =-0.0500 0.2500 0.0500 (  4426 PWs)   bands (ev):

   -43.4270 -19.8441 -19.7857 -19.7856  -5.3840  -4.2829  -4.2285  -2.4618
    -2.4460  -2.4105  -2.3827  -2.2369   6.0222   8.7807   8.8375   9.1877
    10.4895  10.5270  11.1287  11.5359  11.7940  11.9917  14.9498  15.9577
    15.9670  17.7922

          k =-0.0500 0.3500 0.0500 (  4413 PWs)   bands (ev):

   -43.4262 -19.8780 -19.7843 -19.7843  -5.1872  -4.2121  -4.1247  -2.5093
    -2.4639  -2.4423  -2.4087  -2.2190   5.6458   8.3570   8.9661   9.1470
    10.1909  10.1918  11.0643  11.6617  11.8267  12.6000  14.9487  16.5082
    16.5175  17.3145

          k =-0.0500 0.4500 0.0500 (  4412 PWs)   bands (ev):

   -43.4257 -19.8987 -19.7835 -19.7834  -5.0630  -4.1646  -4.0575  -2.5539
    -2.4742  -2.4675  -2.4077  -2.2090   5.4706   7.9130   9.0589   9.3008
     9.9379  10.0079  11.0231  11.7185  11.8574  13.2224  14.9446  16.4441
    16.8387  16.8455

          k = 0.1500 0.0500 0.1500 (  4414 PWs)   bands (ev):

   -43.4273 -19.8087 -19.8077 -19.7868  -5.4619  -4.3080  -4.2787  -2.4504
    -2.4292  -2.4236  -2.3023  -2.2717   6.2264   8.6519   8.7821   9.6020
    10.4899  10.6885  11.1773  11.3759  11.6397  11.8519  15.3369  15.3918
    15.6767  18.1004

          k =-0.0500 0.2500 0.1500 (  4417 PWs)   bands (ev):

   -43.4265 -19.8431 -19.8068 -19.7848  -5.2768  -4.2514  -4.1830  -2.4799
    -2.4452  -2.4245  -2.3356  -2.2566   5.7978   8.6236   8.8812   9.3975
    10.1576  10.4390  10.9972  11.3978  11.5733  12.1533  15.3583  15.9637
    16.1765  18.1773

          k = 0.2500 0.0500 0.1500 (  4417 PWs)   bands (ev):

   -43.4265 -19.8424 -19.8068 -19.7855  -5.2769  -4.2512  -4.1836  -2.4802
    -2.4450  -2.4245  -2.3358  -2.2562   5.7978   8.6239   8.8835   9.3970
    10.1571  10.4398  10.9969  11.3981  11.5736  12.1532  15.3606  15.9593
    16.1745  18.1791

          k =-0.0500 0.3500 0.1500 (  4407 PWs)   bands (ev):

   -43.4257 -19.8769 -19.8053 -19.7834  -5.0925  -4.1896  -4.0775  -2.5137
    -2.4599  -2.4236  -2.3728  -2.2393   5.4641   8.3152   8.9007   9.2555
     9.8841  10.1895  11.0372  11.3775  11.5847  12.6311  15.3502  16.5125
    16.6648  17.5014

          k = 0.3500 0.0500 0.1500 (  4407 PWs)   bands (ev):

   -43.4257 -19.8761 -19.8053 -19.7841  -5.0926  -4.1895  -4.0783  -2.5141
    -2.4595  -2.4236  -2.3729  -2.2389   5.4644   8.3157   8.9039   9.2580
     9.8816  10.1908  11.0335  11.3774  11.5869  12.6301  15.3526  16.5083
    16.6629  17.5028

          k =-0.0500 0.4500 0.1500 (  4414 PWs)   bands (ev):

   -43.4253 -19.8975 -19.8044 -19.7826  -4.9804  -4.1470  -4.0066  -2.5389
    -2.4714  -2.4229  -2.3879  -2.2319   5.2982   7.9209   8.9100   9.4354
     9.6777   9.9767  11.1192  11.3466  11.6081  12.9999  15.3330  16.8405
    16.9046  16.9686

          k = 0.4500 0.0500 0.1500 (  4414 PWs)   bands (ev):

   -43.4253 -19.8968 -19.8045 -19.7833  -4.9805  -4.1470  -4.0077  -2.5392
    -2.4708  -2.4229  -2.3881  -2.2316   5.2986   7.9217   8.9147   9.4418
     9.6731   9.9743  11.1144  11.3469  11.6105  12.9989  15.3355  16.8369
    16.9073  16.9651

          k = 0.2500 0.0500 0.2500 (  4413 PWs)   bands (ev):

   -43.4257 -19.8415 -19.8400 -19.7841  -5.1119  -4.1960  -4.0950  -2.4887
    -2.4503  -2.4382  -2.2878  -2.2841   5.4712   8.5254   8.9843   9.2147
     9.9806  10.0523  10.6658  11.3436  11.6590  12.3410  15.9045  16.0009
    16.5416  18.1794

          k =-0.0500 0.3500 0.2500 (  4411 PWs)   bands (ev):

   -43.4250 -19.8751 -19.8391 -19.7820  -4.9645  -4.1218  -3.9912  -2.5013
    -2.4596  -2.4431  -2.2980  -2.2573   5.1881   8.2824   8.8726   9.0566
     9.7178  10.0175  10.5098  11.2627  11.7885  12.5103  15.9357  16.5104
    16.9231  17.8126

          k = 0.3500 0.0500 0.2500 (  4411 PWs)   bands (ev):

   -43.4250 -19.8743 -19.8391 -19.7827  -4.9646  -4.1217  -3.9921  -2.5017
    -2.4592  -2.4428  -2.2978  -2.2574   5.1880   8.2839   8.8726   9.0580
     9.7166  10.0190  10.5093  11.2644  11.7896  12.5090  15.9359  16.5062
    16.9217  17.8134

          k =-0.0500 0.4500 0.2500 (  4413 PWs)   bands (ev):

   -43.4245 -19.8956 -19.8381 -19.7812  -4.8864  -4.0626  -3.9187  -2.5144
    -2.4702  -2.4448  -2.2815  -2.2566   5.0350   7.9375   8.8648   8.9840
     9.7289   9.9034  10.4866  11.2630  11.8036  12.6032  15.9246  16.8398
    17.1731  17.5944

          k = 0.4500 0.0500 0.2500 (  4413 PWs)   bands (ev):

   -43.4245 -19.8948 -19.8381 -19.7819  -4.8865  -4.0624  -3.9199  -2.5147
    -2.4695  -2.4446  -2.2812  -2.2569   5.0349   7.9393   8.8710   8.9785
     9.7318   9.9032  10.4841  11.2649  11.8046  12.6020  15.9249  16.8361
    17.1720  17.5942

          k = 0.3500 0.0500 0.3500 (  4414 PWs)   bands (ev):

   -43.4242 -19.8729 -19.8720 -19.7813  -4.8773  -4.0024  -3.8944  -2.4964
    -2.4653  -2.4501  -2.3108  -2.1934   4.9345   8.2575   8.4019   9.1122
     9.4565   9.9514  10.3525  11.0522  12.1304  12.2642  16.4530  16.5359
    17.2019  18.1084

          k =-0.0500 0.4500 0.3500 (  4415 PWs)   bands (ev):

   -43.4238 -19.8937 -19.8713 -19.7797  -4.8439  -3.9053  -3.8226  -2.5005
    -2.4695  -2.4588  -2.3176  -2.1481   4.7904   7.9588   8.3460   9.0229
     9.4095  10.0165  10.2527  10.9809  12.0359  12.3319  16.4875  16.8376
    17.4127  18.2460

          k = 0.4500 0.0500 0.3500 (  4415 PWs)   bands (ev):

   -43.4238 -19.8929 -19.8713 -19.7805  -4.8440  -3.9051  -3.8241  -2.5008
    -2.4688  -2.4581  -2.3174  -2.1487   4.7897   7.9616   8.3450   9.0232
     9.4095  10.0217  10.2505  10.9814  12.0366  12.3315  16.4881  16.8339
    17.4097  18.2453

          k = 0.4500 0.0500 0.4500 (  4422 PWs)   bands (ev):

   -43.4233 -19.8918 -19.8917 -19.7796  -4.8377  -3.7773  -3.7591  -2.5011
    -2.4685  -2.4649  -2.3400  -2.0811   4.6467   7.9251   8.0303   9.1144
     9.1495  10.1328  10.1950  10.8327  11.7897  12.5008  16.8248  16.8384
    17.5853  18.5503

          k =-0.1500 0.2500 0.1500 (  4412 PWs)   bands (ev):

   -43.4260 -19.8421 -19.8062 -19.8055  -5.1654  -4.2165  -4.1607  -2.4877
    -2.4529  -2.4216  -2.3032  -2.2548   5.6750   8.5627   8.5717   9.4559
    10.0397  10.2009  11.0890  11.4548  11.5297  12.0393  15.6346  16.1396
    16.1617  18.2521

          k =-0.1500 0.3500 0.1500 (  4414 PWs)   bands (ev):

   -43.4253 -19.8758 -19.8047 -19.8042  -4.9871  -4.1763  -4.0520  -2.5120
    -2.4432  -2.4154  -2.3363  -2.2382   5.3869   8.3120   8.4784   9.1185
     9.8643  10.2609  10.7810  11.4984  11.5724  12.4600  15.5580  16.6138
    16.6234  17.6523

          k =-0.1500 0.4500 0.1500 (  4399 PWs)   bands (ev):

   -43.4248 -19.8964 -19.8037 -19.8034  -4.8813  -4.1508  -3.9747  -2.5220
    -2.4360  -2.4057  -2.3628  -2.2338   5.2346   7.9295   8.4168   9.1712
     9.7919  10.2471  10.6473  11.5115  11.5937  12.6922  15.4782  16.8976
    16.9324  17.3835

          k = 0.2500 0.1500 0.2500 (  4409 PWs)   bands (ev):

   -43.4253 -19.8404 -19.8391 -19.8052  -4.9937  -4.1687  -4.0999  -2.4897
    -2.4631  -2.4082  -2.2638  -2.2575   5.4557   8.3897   8.4598   9.2427
     9.5676  10.0209  11.2197  11.3050  11.6894  12.1110  16.0015  16.1367
    16.4613  17.9648

          k =-0.1500 0.3500 0.2500 (  4415 PWs)   bands (ev):

   -43.4245 -19.8740 -19.8382 -19.8030  -4.8413  -4.1275  -4.0016  -2.4954
    -2.4520  -2.3908  -2.2674  -2.2359   5.2324   8.2052   8.3511   8.7453
     9.3881  10.0724  10.9412  11.3847  11.8177  12.2049  15.9392  16.5324
    16.8063  17.9284

          k = 0.3500 0.1500 0.2500 (  4415 PWs)   bands (ev):

   -43.4245 -19.8733 -19.8382 -19.8037  -4.8413  -4.1273  -4.0024  -2.4954
    -2.4519  -2.3906  -2.2673  -2.2359   5.2323   8.2064   8.3526   8.7445
     9.3871  10.0738  10.9424  11.3845  11.8185  12.2034  15.9401  16.5292
    16.8055  17.9289

          k =-0.1500 0.4500 0.2500 (  4413 PWs)   bands (ev):

   -43.4241 -19.8946 -19.8372 -19.8021  -4.7615  -4.1007  -3.9216  -2.4952
    -2.4420  -2.3810  -2.2585  -2.2377   5.1014   7.9382   8.1792   8.6821
     9.3659  10.1709  10.7071  11.4475  11.8316  12.2087  15.8923  16.8256
    17.0635  18.0243

          k = 0.4500 0.1500 0.2500 (  4413 PWs)   bands (ev):

   -43.4241 -19.8938 -19.8372 -19.8028  -4.7615  -4.1006  -3.9227  -2.4952
    -2.4419  -2.3806  -2.2583  -2.2379   5.1015   7.9399   8.1815   8.6805
     9.3647  10.1739  10.7068  11.4473  11.8321  12.2075  15.8932  16.8222
    17.0629  18.0244

          k = 0.3500 0.1500 0.3500 (  4422 PWs)   bands (ev):

   -43.4238 -19.8719 -19.8711 -19.8023  -4.7424  -4.0314  -3.9372  -2.4853
    -2.4386  -2.3708  -2.2666  -2.1747   5.0541   8.1312   8.2634   8.4316
     8.8083  10.0705  11.1114  11.1286  11.8461  12.1328  16.3189  16.5494
    17.0415  18.2603

          k =-0.1500 0.4500 0.3500 (  4413 PWs)   bands (ev):

   -43.4233 -19.8927 -19.8704 -19.8007  -4.7070  -3.9663  -3.8678  -2.4801
    -2.4191  -2.3641  -2.2772  -2.1300   4.9397   7.9453   8.1825   8.2378
     8.7082  10.1213  10.9185  11.2210  11.5616  12.2886  16.4032  16.7769
    17.2442  18.5799

          k = 0.4500 0.1500 0.3500 (  4413 PWs)   bands (ev):

   -43.4233 -19.8919 -19.8704 -19.8014  -4.7070  -3.9662  -3.8690  -2.4801
    -2.4188  -2.3637  -2.2767  -2.1306   4.9391   7.9494   8.1831   8.2350
     8.7089  10.1225  10.9191  11.2211  11.5611  12.2890  16.4036  16.7738
    17.2430  18.5801

          k = 0.4500 0.1500 0.4500 (  4431 PWs)   bands (ev):

   -43.4228 -19.8909 -19.8907 -19.8005  -4.7001  -3.8494  -3.8331  -2.4730
    -2.3814  -2.3517  -2.3131  -2.0612   4.8294   7.9162   8.0069   8.2541
     8.3258  10.1484  11.0027  11.0667  11.1870  12.4907  16.7365  16.7752
    17.4006  18.9181

          k =-0.2500 0.3500 0.2500 (  4405 PWs)   bands (ev):

   -43.4238 -19.8724 -19.8370 -19.8363  -4.6581  -4.1177  -4.0117  -2.4661
    -2.4428  -2.3260  -2.2081  -2.2041   5.2712   7.8353   8.0299   8.5271
     9.2057   9.3571  11.3491  11.6824  11.7756  11.9209  16.0306  16.5804
    16.7904  18.2341

          k =-0.2500 0.4500 0.2500 (  4423 PWs)   bands (ev):

   -43.4233 -19.8928 -19.8360 -19.8354  -4.5826  -4.1237  -3.9266  -2.4591
    -2.4263  -2.2740  -2.2084  -2.2002   5.1843   7.6670   7.9310   8.1987
     9.1750   9.4115  11.1024  11.7188  11.7194  11.9900  16.0831  16.7739
    17.0545  18.5732

          k = 0.3500 0.2500 0.3500 (  4421 PWs)   bands (ev):

   -43.4230 -19.8703 -19.8696 -19.8359  -4.5258  -4.0663  -4.0006  -2.4437
    -2.4129  -2.2697  -2.1823  -2.1377   5.2539   7.6407   7.7277   8.4210
     8.5486   9.2608  10.9787  11.7471  11.7860  12.1402  16.2666  16.6794
    16.9609  18.6326

          k =-0.2500 0.4500 0.3500 (  4433 PWs)   bands (ev):

   -43.4226 -19.8911 -19.8689 -19.8342  -4.4834  -4.0493  -3.9328  -2.4339
    -2.3871  -2.2210  -2.1828  -2.0934   5.2130   7.4770   7.7205   7.9886
     8.4977   9.2669  10.5719  11.7553  11.8002  12.2776  16.4621  16.7854
    17.1618  19.0486

          k = 0.4500 0.2500 0.3500 (  4433 PWs)   bands (ev):

   -43.4226 -19.8904 -19.8689 -19.8350  -4.4831  -4.0492  -3.9338  -2.4338
    -2.3871  -2.2205  -2.1826  -2.0940   5.2126   7.4790   7.7195   7.9898
     8.4976   9.2670  10.5716  11.7561  11.7997  12.2782  16.4623  16.7833
    17.1618  19.0491

          k = 0.4500 0.2500 0.4500 (  4435 PWs)   bands (ev):

   -43.4221 -19.8893 -19.8893 -19.8341  -4.4720  -3.9488  -3.9346  -2.4233
    -2.3515  -2.1877  -2.1745  -2.0225   5.1917   7.5020   7.5314   7.9175
     8.0734   9.2613  10.0808  11.7905  11.7948  12.4746  16.7589  16.8210
    17.2990  19.4325

          k =-0.3500 0.4500 0.3500 (  4433 PWs)   bands (ev):

   -43.4218 -19.8895 -19.8676 -19.8673  -4.2820  -4.0916  -3.9910  -2.3889
    -2.3673  -2.1045  -2.0718  -2.0370   5.5256   7.0626   7.2522   7.9706
     8.4524   8.4871   9.6574  12.1258  12.1907  12.3055  16.7139  16.9346
    17.1614  19.5310

          k = 0.4500 0.3500 0.4500 (  4431 PWs)   bands (ev):

   -43.4213 -19.8878 -19.8878 -19.8673  -4.2377  -4.0333  -4.0213  -2.3732
    -2.3450  -2.0359  -2.0243  -1.9727   5.7099   6.9733   7.0084   7.8915
     8.0698   8.4674   8.9869  12.2474  12.2489  12.4589  16.9590  17.0263
    17.2522  19.9588

     the Fermi energy is    13.3379 ev

!    total energy              =    -364.90490475 Ry
     Harris-Foulkes estimate   =    -364.90490475 Ry
     estimated scf accuracy    <          4.3E-11 Ry

     The total energy is the sum of the following terms:

     one-electron contribution =     -64.08944232 Ry
     hartree contribution      =      65.39998963 Ry
     xc contribution           =     -86.30124355 Ry
     ewald contribution        =    -279.91522015 Ry
     smearing contrib. (-TS)   =       0.00101164 Ry

     convergence has been achieved in   7 iterations

     Forces acting on atoms (cartesian axes, Ry/au):

     atom    1 type  1   force =     0.00000000    0.00013034    0.00000000
     atom    2 type  2   force =     0.00000000    0.00005911    0.00000000
     atom    3 type  3   force =     0.00000000   -0.00006747    0.00000000
     atom    4 type  3   force =     0.00000000   -0.00005451    0.00000000
     atom    5 type  3   force =     0.00000000   -0.00006747    0.00000000

     Total force =     0.000125     Total SCF correction =     0.000009


     Computing stress (Cartesian axis) and pressure

          total   stress  (Ry/bohr**3)                   (kbar)     P=  330.35
   0.00224433   0.00000000   0.00000000        330.15      0.00      0.00
   0.00000000   0.00224839   0.00000000          0.00    330.75      0.00
   0.00000000   0.00000000   0.00224433          0.00      0.00    330.15


     bfgs converged in   9 scf cycles and   8 bfgs steps
     (criteria: energy <  1.0E-04 Ry, force <  1.0E-03 Ry/Bohr)

     End of BFGS Geometry Optimization

     Final energy   =    -364.9049047471 Ry
Begin final coordinates

ATOMIC_POSITIONS (crystal)
Pb       0.000000000   0.000000000   0.000000000    0   0   0
Ti       0.500000000   0.500093575   0.500000000
O        0.500000000   0.505702601   0.000000000
O        0.500000000   0.003480971   0.500000000
O        0.000000000   0.505702601   0.500000000
End final coordinates



     Writing output data file PbTiO3.save/

     init_run     :     11.54s CPU     15.50s WALL (       1 calls)
     electrons    :   1907.11s CPU   2640.04s WALL (       9 calls)
     update_pot   :      2.93s CPU      3.10s WALL (       8 calls)
     forces       :     39.57s CPU     45.84s WALL (       9 calls)
     stress       :    106.04s CPU    115.03s WALL (       9 calls)

     Called by init_run:
     wfcinit      :      8.30s CPU     11.44s WALL (       1 calls)
     potinit      :      0.28s CPU      0.36s WALL (       1 calls)
     hinit0       :      2.00s CPU      2.12s WALL (       1 calls)

     Called by electrons:
     c_bands      :   1639.14s CPU   2228.45s WALL (      76 calls)
     sum_band     :    215.39s CPU    340.40s WALL (      76 calls)
     v_of_rho     :     16.22s CPU     17.85s WALL (      82 calls)
     newd         :     40.83s CPU     59.58s WALL (      82 calls)
     mix_rho      :      1.26s CPU      1.51s WALL (      76 calls)

     Called by c_bands:
     init_us_2    :     25.32s CPU     34.33s WALL (   12825 calls)
     cegterg      :   1563.06s CPU   2143.90s WALL (    5700 calls)

     Called by sum_band:
     sum_band:bec :      0.37s CPU      0.51s WALL (    5700 calls)
     addusdens    :     50.75s CPU     68.49s WALL (      76 calls)

     Called by *egterg:
     h_psi        :    885.76s CPU   1386.53s WALL (   24568 calls)
     s_psi        :    153.60s CPU    173.32s WALL (   24568 calls)
     g_psi        :     13.43s CPU     18.81s WALL (   18793 calls)
     cdiaghg      :     29.89s CPU     41.17s WALL (   23668 calls)

     Called by h_psi:
     h_psi:pot    :    882.49s CPU   1381.17s WALL (   24568 calls)
     h_psi:calbec :    155.45s CPU    175.35s WALL (   24568 calls)
     vloc_psi     :    569.52s CPU   1031.03s WALL (   24568 calls)
     add_vuspsi   :    155.73s CPU    172.62s WALL (   24568 calls)

     General routines
     calbec       :    245.55s CPU    273.99s WALL (   33643 calls)
     fft          :      7.45s CPU      8.59s WALL (    1284 calls)
     ffts         :      0.20s CPU      0.30s WALL (     158 calls)
     fftw         :    584.99s CPU   1066.30s WALL (  979798 calls)
     interpolate  :      0.62s CPU      0.82s WALL (      82 calls)

     Parallel routines

     PWSCF        :  34m32.45s CPU  47m 7.93s WALL


   This run was terminated on:   8:36:15  14May2020            

=------------------------------------------------------------------------------=
   JOB DONE.
=------------------------------------------------------------------------------=
