--------------------------------------------------------------------------
[[2028,1],0]: A high-performance Open MPI point-to-point messaging module
was unable to find any relevant network interfaces:

Module: OpenFabrics (openib)
  Host: ubuntu

Another transport will be used instead, although this may result in
lower performance.
--------------------------------------------------------------------------

     Program PWSCF v.5.1 starts on 12May2020 at 15:28:17 

     This program is part of the open-source Quantum ESPRESSO suite
     for quantum simulation of materials; please cite
         "P. Giannozzi et al., J. Phys.:Condens. Matter 21 395502 (2009);
          URL http://www.quantum-espresso.org", 
     in publications or presentations arising from this work. More details at
     http://www.quantum-espresso.org/quote

     Parallel version (MPI), running on     1 processors
     Reading input from PTO_7.49_10_0.499.pw.in
Warning: card  &CELL ignored
Warning: card   CELL_DYNAMICS = 'BFGS', ignored
Warning: card  / ignored

     Current dimensions of program PWSCF are:
     Max number of different atomic species (ntypx) = 10
     Max number of k-points (npk) =  40000
     Max angular momentum in pseudopotentials (lmaxx) =  3
               file Pb.pbe-dn-rrkjus_psl.0.2.2.UPF: wavefunction(s)  6S renormalized

     Subspace diagonalization in iterative solution of the eigenvalue problem:
     a serial algorithm will be used


     G-vector sticks info
     --------------------
     sticks:   dense  smooth     PW     G-vecs:    dense   smooth      PW
     Sum        3569    1433    421               160467    40651    6235



     bravais-lattice index     =            1
     lattice parameter (alat)  =       7.4900  a.u.
     unit-cell volume          =     420.1897 (a.u.)^3
     number of atoms/cell      =            5
     number of atomic types    =            3
     number of electrons       =        44.00
     number of Kohn-Sham states=           26
     kinetic-energy cutoff     =      80.0000  Ry
     charge density cutoff     =     800.0000  Ry
     convergence threshold     =      1.0E-08
     mixing beta               =       0.7000
     number of iterations used =            8  plain     mixing
     Exchange-correlation      = PBE ( 1  4  3  4 0)
     nstep                     =           50


     celldm(1)=   7.490000  celldm(2)=   0.000000  celldm(3)=   0.000000
     celldm(4)=   0.000000  celldm(5)=   0.000000  celldm(6)=   0.000000

     crystal axes: (cart. coord. in units of alat)
               a(1) = (   1.000000   0.000000   0.000000 )  
               a(2) = (   0.000000   1.000000   0.000000 )  
               a(3) = (   0.000000   0.000000   1.000000 )  

     reciprocal axes: (cart. coord. in units 2 pi/alat)
               b(1) = (  1.000000  0.000000  0.000000 )  
               b(2) = (  0.000000  1.000000  0.000000 )  
               b(3) = (  0.000000  0.000000  1.000000 )  


     PseudoPot. # 1 for Pb read from file:
     ./Pb.pbe-dn-rrkjus_psl.0.2.2.UPF
     MD5 check sum: 7afc420059c37d6888fc09c0f121e83f
     Pseudo is Ultrasoft + core correction, Zval = 14.0
     Generated using "atomic" code by A. Dal Corso  v.5.0.2 svn rev. 9415
     Using radial grid of 1281 points,  6 beta functions with: 
                l(1) =   0
                l(2) =   0
                l(3) =   1
                l(4) =   1
                l(5) =   2
                l(6) =   2
     Q(r) pseudized with 0 coefficients 


     PseudoPot. # 2 for Ti read from file:
     ./Ti.pbe-sp-van_ak.UPF
     MD5 check sum: 8e4df49b7f0d34bbd5052bf3f5ea0213
     Pseudo is Ultrasoft, Zval = 12.0
     Generated by new atomic code, or converted to UPF format
     Using radial grid of  851 points,  6 beta functions with: 
                l(1) =   0
                l(2) =   0
                l(3) =   1
                l(4) =   1
                l(5) =   2
                l(6) =   2
     Q(r) pseudized with  8 coefficients,  rinner =    1.000   1.000   1.000
                                                       1.000   1.000

     PseudoPot. # 3 for  O read from file:
     ./O.pbe-n-rrkjus_psl.0.1.UPF
     MD5 check sum: e057bbcf3229fb5d8c36c0c92f9568b4
     Pseudo is Ultrasoft + core correction, Zval =  6.0
     Generated using "atomic" code by A. Dal Corso  v.5.0.2 svn rev. 9415
     Using radial grid of 1095 points,  4 beta functions with: 
                l(1) =   0
                l(2) =   0
                l(3) =   1
                l(4) =   1
     Q(r) pseudized with 0 coefficients 


     atomic species   valence    mass     pseudopotential
        Pb            14.00   207.20000     Pb( 1.00)
        Ti            12.00    47.87000     Ti( 1.00)
        O              6.00    16.00000      O( 1.00)

      8 Sym. Ops. (no inversion) found



   Cartesian axes

     site n.     atom                  positions (alat units)
         1           Pb  tau(   1) = (   0.0000000   0.0000000   0.0000000  )
         2           Ti  tau(   2) = (   0.5000000   0.4990000   0.5000000  )
         3           O   tau(   3) = (   0.5000000   0.5000000   0.0000000  )
         4           O   tau(   4) = (   0.5000000   0.0000000   0.5000000  )
         5           O   tau(   5) = (   0.0000000   0.5000000   0.5000000  )

     number of k points=    75  Marzari-Vanderbilt smearing, width (Ry)=  0.0250
                       cart. coord. in units 2pi/alat
        k(    1) = (   0.0500000   0.0500000   0.0500000), wk =   0.0160000
        k(    2) = (   0.0500000   0.0500000   0.1500000), wk =   0.0320000
        k(    3) = (   0.0500000   0.0500000   0.2500000), wk =   0.0320000
        k(    4) = (   0.0500000   0.0500000   0.3500000), wk =   0.0320000
        k(    5) = (   0.0500000   0.0500000   0.4500000), wk =   0.0320000
        k(    6) = (   0.0500000   0.1500000   0.1500000), wk =   0.0320000
        k(    7) = (   0.0500000   0.1500000   0.2500000), wk =   0.0320000
        k(    8) = (   0.0500000   0.1500000   0.3500000), wk =   0.0320000
        k(    9) = (   0.0500000   0.1500000   0.4500000), wk =   0.0320000
        k(   10) = (   0.0500000   0.2500000   0.2500000), wk =   0.0320000
        k(   11) = (   0.0500000   0.2500000   0.3500000), wk =   0.0320000
        k(   12) = (   0.0500000   0.2500000   0.4500000), wk =   0.0320000
        k(   13) = (   0.0500000   0.3500000   0.3500000), wk =   0.0320000
        k(   14) = (   0.0500000   0.3500000   0.4500000), wk =   0.0320000
        k(   15) = (   0.0500000   0.4500000   0.4500000), wk =   0.0320000
        k(   16) = (   0.1500000   0.1500000   0.1500000), wk =   0.0160000
        k(   17) = (   0.1500000   0.1500000   0.2500000), wk =   0.0320000
        k(   18) = (   0.1500000   0.1500000   0.3500000), wk =   0.0320000
        k(   19) = (   0.1500000   0.1500000   0.4500000), wk =   0.0320000
        k(   20) = (   0.1500000   0.2500000   0.2500000), wk =   0.0320000
        k(   21) = (   0.1500000   0.2500000   0.3500000), wk =   0.0320000
        k(   22) = (   0.1500000   0.2500000   0.4500000), wk =   0.0320000
        k(   23) = (   0.1500000   0.3500000   0.3500000), wk =   0.0320000
        k(   24) = (   0.1500000   0.3500000   0.4500000), wk =   0.0320000
        k(   25) = (   0.1500000   0.4500000   0.4500000), wk =   0.0320000
        k(   26) = (   0.2500000   0.2500000   0.2500000), wk =   0.0160000
        k(   27) = (   0.2500000   0.2500000   0.3500000), wk =   0.0320000
        k(   28) = (   0.2500000   0.2500000   0.4500000), wk =   0.0320000
        k(   29) = (   0.2500000   0.3500000   0.3500000), wk =   0.0320000
        k(   30) = (   0.2500000   0.3500000   0.4500000), wk =   0.0320000
        k(   31) = (   0.2500000   0.4500000   0.4500000), wk =   0.0320000
        k(   32) = (   0.3500000   0.3500000   0.3500000), wk =   0.0160000
        k(   33) = (   0.3500000   0.3500000   0.4500000), wk =   0.0320000
        k(   34) = (   0.3500000   0.4500000   0.4500000), wk =   0.0320000
        k(   35) = (   0.4500000   0.4500000   0.4500000), wk =   0.0160000
        k(   36) = (  -0.0500000   0.1500000   0.0500000), wk =   0.0160000
        k(   37) = (  -0.0500000   0.2500000   0.0500000), wk =   0.0160000
        k(   38) = (  -0.0500000   0.3500000   0.0500000), wk =   0.0160000
        k(   39) = (  -0.0500000   0.4500000   0.0500000), wk =   0.0160000
        k(   40) = (   0.1500000   0.0500000   0.1500000), wk =   0.0160000
        k(   41) = (  -0.0500000   0.2500000   0.1500000), wk =   0.0320000
        k(   42) = (   0.2500000   0.0500000   0.1500000), wk =   0.0320000
        k(   43) = (  -0.0500000   0.3500000   0.1500000), wk =   0.0320000
        k(   44) = (   0.3500000   0.0500000   0.1500000), wk =   0.0320000
        k(   45) = (  -0.0500000   0.4500000   0.1500000), wk =   0.0320000
        k(   46) = (   0.4500000   0.0500000   0.1500000), wk =   0.0320000
        k(   47) = (   0.2500000   0.0500000   0.2500000), wk =   0.0160000
        k(   48) = (  -0.0500000   0.3500000   0.2500000), wk =   0.0320000
        k(   49) = (   0.3500000   0.0500000   0.2500000), wk =   0.0320000
        k(   50) = (  -0.0500000   0.4500000   0.2500000), wk =   0.0320000
        k(   51) = (   0.4500000   0.0500000   0.2500000), wk =   0.0320000
        k(   52) = (   0.3500000   0.0500000   0.3500000), wk =   0.0160000
        k(   53) = (  -0.0500000   0.4500000   0.3500000), wk =   0.0320000
        k(   54) = (   0.4500000   0.0500000   0.3500000), wk =   0.0320000
        k(   55) = (   0.4500000   0.0500000   0.4500000), wk =   0.0160000
        k(   56) = (  -0.1500000   0.2500000   0.1500000), wk =   0.0160000
        k(   57) = (  -0.1500000   0.3500000   0.1500000), wk =   0.0160000
        k(   58) = (  -0.1500000   0.4500000   0.1500000), wk =   0.0160000
        k(   59) = (   0.2500000   0.1500000   0.2500000), wk =   0.0160000
        k(   60) = (  -0.1500000   0.3500000   0.2500000), wk =   0.0320000
        k(   61) = (   0.3500000   0.1500000   0.2500000), wk =   0.0320000
        k(   62) = (  -0.1500000   0.4500000   0.2500000), wk =   0.0320000
        k(   63) = (   0.4500000   0.1500000   0.2500000), wk =   0.0320000
        k(   64) = (   0.3500000   0.1500000   0.3500000), wk =   0.0160000
        k(   65) = (  -0.1500000   0.4500000   0.3500000), wk =   0.0320000
        k(   66) = (   0.4500000   0.1500000   0.3500000), wk =   0.0320000
        k(   67) = (   0.4500000   0.1500000   0.4500000), wk =   0.0160000
        k(   68) = (  -0.2500000   0.3500000   0.2500000), wk =   0.0160000
        k(   69) = (  -0.2500000   0.4500000   0.2500000), wk =   0.0160000
        k(   70) = (   0.3500000   0.2500000   0.3500000), wk =   0.0160000
        k(   71) = (  -0.2500000   0.4500000   0.3500000), wk =   0.0320000
        k(   72) = (   0.4500000   0.2500000   0.3500000), wk =   0.0320000
        k(   73) = (   0.4500000   0.2500000   0.4500000), wk =   0.0160000
        k(   74) = (  -0.3500000   0.4500000   0.3500000), wk =   0.0160000
        k(   75) = (   0.4500000   0.3500000   0.4500000), wk =   0.0160000

     Dense  grid:   160467 G-vectors     FFT dimensions: (  72,  72,  72)

     Smooth grid:    40651 G-vectors     FFT dimensions: (  45,  45,  45)

     Largest allocated arrays     est. size (Mb)     dimensions
        Kohn-Sham Wavefunctions         2.02 Mb     (    5100,   26)
        NL pseudopotentials             4.67 Mb     (    5100,   60)
        Each V/rho on FFT grid          5.70 Mb     (  373248)
        Each G-vector array             1.22 Mb     (  160467)
        G-vector shells                 0.01 Mb     (     949)
     Largest temporary arrays     est. size (Mb)     dimensions
        Auxiliary wavefunctions         8.09 Mb     (    5100,  104)
        Each subspace H/S matrix        0.17 Mb     (     104,  104)
        Each <psi_i|beta_j> matrix      0.02 Mb     (      60,   26)
        Arrays for rho mixing          45.56 Mb     (  373248,    8)

     Check: negative/imaginary core charge=   -0.000006    0.000000

     Initial potential from superposition of free atoms

     starting charge   42.99760, renormalised to   44.00000
     Starting wfc are   31 randomized atomic wfcs

     total cpu time spent up to now is       18.7 secs

     per-process dynamical memory:   241.7 Mb

     Self-consistent Calculation

     iteration #  1     ecut=    80.00 Ry     beta=0.70
     Davidson diagonalization with overlap
     ethr =  1.00E-02,  avg # of iterations =  2.0

     total cpu time spent up to now is       56.2 secs

     total energy              =    -364.37958247 Ry
     Harris-Foulkes estimate   =    -365.28859110 Ry
     estimated scf accuracy    <       1.13876515 Ry

     iteration #  2     ecut=    80.00 Ry     beta=0.70
     Davidson diagonalization with overlap
     ethr =  2.59E-03,  avg # of iterations =  4.0

     total cpu time spent up to now is      111.6 secs

     total energy              =    -363.01402966 Ry
     Harris-Foulkes estimate   =    -365.91418140 Ry
     estimated scf accuracy    <      11.93255121 Ry

     iteration #  3     ecut=    80.00 Ry     beta=0.70
     Davidson diagonalization with overlap
     ethr =  2.59E-03,  avg # of iterations =  5.2

     total cpu time spent up to now is      169.3 secs

     total energy              =    -364.93661905 Ry
     Harris-Foulkes estimate   =    -365.11391478 Ry
     estimated scf accuracy    <       0.47808450 Ry

     iteration #  4     ecut=    80.00 Ry     beta=0.70
     Davidson diagonalization with overlap
     ethr =  1.09E-03,  avg # of iterations =  3.3

     total cpu time spent up to now is      205.9 secs

     total energy              =    -364.92451726 Ry
     Harris-Foulkes estimate   =    -364.97457586 Ry
     estimated scf accuracy    <       0.18576390 Ry

     iteration #  5     ecut=    80.00 Ry     beta=0.70
     Davidson diagonalization with overlap
     ethr =  4.22E-04,  avg # of iterations =  4.3

     total cpu time spent up to now is      251.5 secs

     total energy              =    -364.95637224 Ry
     Harris-Foulkes estimate   =    -364.95724999 Ry
     estimated scf accuracy    <       0.00342455 Ry

     iteration #  6     ecut=    80.00 Ry     beta=0.70
     Davidson diagonalization with overlap
     ethr =  7.78E-06,  avg # of iterations =  4.6

     total cpu time spent up to now is      302.9 secs

     total energy              =    -364.95732316 Ry
     Harris-Foulkes estimate   =    -364.95743462 Ry
     estimated scf accuracy    <       0.00029826 Ry

     iteration #  7     ecut=    80.00 Ry     beta=0.70
     Davidson diagonalization with overlap
     ethr =  6.78E-07,  avg # of iterations =  3.4

     total cpu time spent up to now is      352.6 secs

     total energy              =    -364.95732474 Ry
     Harris-Foulkes estimate   =    -364.95745642 Ry
     estimated scf accuracy    <       0.00038861 Ry

     iteration #  8     ecut=    80.00 Ry     beta=0.70
     Davidson diagonalization with overlap
     ethr =  6.78E-07,  avg # of iterations =  3.0

     total cpu time spent up to now is      393.7 secs

     total energy              =    -364.95739523 Ry
     Harris-Foulkes estimate   =    -364.95742663 Ry
     estimated scf accuracy    <       0.00010818 Ry

     iteration #  9     ecut=    80.00 Ry     beta=0.70
     Davidson diagonalization with overlap
     ethr =  2.46E-07,  avg # of iterations =  2.1

     total cpu time spent up to now is      430.0 secs

     total energy              =    -364.95739314 Ry
     Harris-Foulkes estimate   =    -364.95740522 Ry
     estimated scf accuracy    <       0.00002816 Ry

     iteration # 10     ecut=    80.00 Ry     beta=0.70
     Davidson diagonalization with overlap
     ethr =  6.40E-08,  avg # of iterations =  2.5

     total cpu time spent up to now is      467.9 secs

     total energy              =    -364.95739648 Ry
     Harris-Foulkes estimate   =    -364.95739714 Ry
     estimated scf accuracy    <       0.00000177 Ry

     iteration # 11     ecut=    80.00 Ry     beta=0.70
     Davidson diagonalization with overlap
     ethr =  4.02E-09,  avg # of iterations =  3.3

     total cpu time spent up to now is      517.3 secs

     total energy              =    -364.95739690 Ry
     Harris-Foulkes estimate   =    -364.95739697 Ry
     estimated scf accuracy    <       0.00000023 Ry

     iteration # 12     ecut=    80.00 Ry     beta=0.70
     Davidson diagonalization with overlap
     ethr =  5.28E-10,  avg # of iterations =  2.1

     total cpu time spent up to now is      554.8 secs

     total energy              =    -364.95739693 Ry
     Harris-Foulkes estimate   =    -364.95739693 Ry
     estimated scf accuracy    <       0.00000002 Ry

     iteration # 13     ecut=    80.00 Ry     beta=0.70
     Davidson diagonalization with overlap
     ethr =  4.75E-11,  avg # of iterations =  3.1

     total cpu time spent up to now is      601.1 secs

     End of self-consistent calculation

          k = 0.0500 0.0500 0.0500 (  5047 PWs)   bands (ev):

   -46.2721 -22.5115 -22.5114 -22.5114  -7.2247  -6.1949  -6.1947  -5.0129
    -5.0129  -5.0124  -4.8714  -4.8714   4.5045   6.8275   6.8276   6.9712
     9.0978   9.0978   9.2121   9.5612   9.5617   9.5960  12.3578  12.3682
    12.3684  14.4762

          k = 0.0500 0.0500 0.1500 (  5074 PWs)   bands (ev):

   -46.2719 -22.5221 -22.5111 -22.5110  -7.1381  -6.1635  -6.1631  -5.0217
    -5.0195  -5.0121  -4.9048  -4.8664   4.2069   6.8673   6.8974   7.1634
     8.8559   8.9004   9.2090   9.2960   9.5353   9.5470  12.3663  12.6964
    12.6982  14.4766

          k = 0.0500 0.0500 0.2500 (  5093 PWs)   bands (ev):

   -46.2716 -22.5393 -22.5105 -22.5104  -6.9931  -6.1125  -6.1086  -5.0378
    -5.0295  -5.0112  -4.9612  -4.8599   3.8394   6.8535   7.0274   7.1527
     8.5116   8.5791   9.1512   9.2530   9.5547   9.6496  12.3692  13.1713
    13.1786  14.4768

          k = 0.0500 0.0500 0.3500 (  5090 PWs)   bands (ev):

   -46.2712 -22.5563 -22.5098 -22.5098  -6.8408  -6.0631  -6.0473  -5.0632
    -5.0384  -5.0145  -5.0103  -4.8554   3.5553   6.4523   7.2001   7.2979
     8.1654   8.2205   9.0828   9.4075   9.5977  10.0238  12.3710  13.6076
    13.6155  14.3392

          k = 0.0500 0.0500 0.4500 (  5073 PWs)   bands (ev):

   -46.2710 -22.5668 -22.5095 -22.5094  -6.7421  -6.0339  -6.0049  -5.0945
    -5.0433  -5.0364  -5.0097  -4.8537   3.4103   6.1261   7.3725   7.5368
     7.8879   7.9005   9.0397   9.4841   9.6302  10.4626  12.3694  13.6081
    13.8670  13.8730

          k = 0.0500 0.1500 0.1500 (  5079 PWs)   bands (ev):

   -46.2717 -22.5219 -22.5215 -22.5106  -7.0540  -6.1402  -6.1307  -5.0315
    -5.0209  -5.0178  -4.9014  -4.8809   3.9905   6.8209   6.9511   7.3318
     8.5368   8.7342   9.0952   9.3361   9.3809   9.5625  12.6752  12.7217
    12.9488  14.7339

          k = 0.0500 0.1500 0.2500 (  5077 PWs)   bands (ev):

   -46.2713 -22.5388 -22.5211 -22.5100  -6.9151  -6.0994  -6.0771  -5.0477
    -5.0284  -5.0182  -4.9299  -4.8761   3.6946   6.7729   7.0474   7.2609
     8.2038   8.4935   8.8846   9.3254   9.3825   9.7543  12.6968  13.1764
    13.3461  14.7981

          k = 0.0500 0.1500 0.3500 (  5080 PWs)   bands (ev):

   -46.2710 -22.5558 -22.5204 -22.5094  -6.7732  -6.0513  -6.0241  -5.0684
    -5.0346  -5.0178  -4.9601  -4.8714   3.4490   6.4468   7.1144   7.3249
     7.9099   8.2434   8.8803   9.3354   9.3885  10.0459  12.6916  13.6111
    13.7339  14.5001

          k = 0.0500 0.1500 0.4500 (  5079 PWs)   bands (ev):

   -46.2708 -22.5663 -22.5200 -22.5090  -6.6845  -6.0129  -5.9953  -5.0859
    -5.0404  -5.0175  -4.9714  -4.8722   3.3185   6.1342   7.2183   7.4644
     7.7660   7.9507   8.9666   9.3146   9.4155  10.2725  12.6793  13.8688
    13.9713  14.0149

          k = 0.0500 0.2500 0.2500 (  5076 PWs)   bands (ev):

   -46.2710 -22.5384 -22.5379 -22.5094  -6.7923  -6.0739  -6.0199  -5.0523
    -5.0321  -5.0233  -4.9023  -4.8939   3.4775   6.7119   7.0292   7.2063
     7.9945   8.1462   8.7065   9.0946   9.5906   9.8454  13.1332  13.2100
    13.6389  14.9288

          k = 0.0500 0.2500 0.3500 (  5080 PWs)   bands (ev):

   -46.2707 -22.5551 -22.5374 -22.5087  -6.6787  -6.0290  -5.9626  -5.0612
    -5.0348  -5.0259  -4.9152  -4.8745   3.2813   6.4483   6.8974   7.2684
     7.7810   8.0945   8.5078   9.0495   9.6681   9.9234  13.1592  13.6094
    13.9441  14.7486

          k = 0.0500 0.2500 0.4500 (  5084 PWs)   bands (ev):

   -46.2705 -22.5655 -22.5370 -22.5083  -6.6161  -5.9831  -5.9314  -5.0707
    -5.0388  -5.0285  -4.9092  -4.8720   3.1709   6.1456   6.9547   7.2162
     7.7785   8.0316   8.4255   9.0786   9.6264   9.9809  13.1513  13.8675
    14.1438  14.5910

          k = 0.0500 0.3500 0.3500 (  5079 PWs)   bands (ev):

   -46.2703 -22.5545 -22.5541 -22.5081  -6.6104  -5.9671  -5.8980  -5.0580
    -5.0391  -5.0265  -4.9355  -4.8210   3.1207   6.4255   6.4938   7.3205
     7.6598   7.9552   8.4448   8.8068   9.6256   9.9730  13.5695  13.6315
    14.1739  14.9805

          k = 0.0500 0.3500 0.4500 (  5079 PWs)   bands (ev):

   -46.2701 -22.5647 -22.5539 -22.5077  -6.5833  -5.9018  -5.8611  -5.0612
    -5.0384  -5.0328  -4.9450  -4.7882   3.0257   6.1353   6.5019   7.2789
     7.6021   8.0919   8.2838   8.7597   9.4003  10.1083  13.5956  13.8651
    14.3392  15.1026

          k = 0.0500 0.4500 0.4500 (  5100 PWs)   bands (ev):

   -46.2699 -22.5642 -22.5642 -22.5073  -6.5782  -5.8272  -5.8150  -5.0610
    -5.0372  -5.0340  -4.9681  -4.7398   2.9375   6.0345   6.3158   7.3706
     7.4122   8.2018   8.3069   8.5459   9.0977  10.2733  13.8577  13.8675
    14.4821  15.3340

          k = 0.1500 0.1500 0.1500 (  5095 PWs)   bands (ev):

   -46.2715 -22.5216 -22.5212 -22.5211  -6.9711  -6.1126  -6.1125  -5.0349
    -5.0349  -5.0151  -4.8893  -4.8893   3.8388   6.8288   6.8289   7.4655
     8.3598   8.3599   9.2901   9.2907   9.3946   9.3952  12.9346  12.9466
    12.9467  15.2820

          k = 0.1500 0.1500 0.2500 (  5084 PWs)   bands (ev):

   -46.2711 -22.5384 -22.5207 -22.5205  -6.8358  -6.0825  -6.0651  -5.0542
    -5.0336  -5.0105  -4.9070  -4.8759   3.6105   6.7470   6.8359   7.3123
     8.0250   8.1671   8.9893   9.3721   9.4648   9.6127  12.9148  13.3189
    13.3336  15.1734

          k = 0.1500 0.1500 0.3500 (  5082 PWs)   bands (ev):

   -46.2708 -22.5554 -22.5201 -22.5199  -6.7003  -6.0512  -6.0127  -5.0694
    -5.0279  -5.0012  -4.9301  -4.8709   3.4057   6.4500   6.8323   7.1926
     7.7920   8.2250   8.6809   9.4295   9.4793   9.8824  12.8541  13.6991
    13.7014  14.6629

          k = 0.1500 0.1500 0.4500 (  5084 PWs)   bands (ev):

   -46.2706 -22.5658 -22.5196 -22.5195  -6.6177  -6.0312  -5.9762  -5.0762
    -5.0240  -4.9895  -4.9476  -4.8737   3.2921   6.1410   6.8226   7.2583
     7.6794   8.2951   8.4975   9.4634   9.4723  10.0164  12.7930  13.9293
    13.9425  14.4314

          k = 0.1500 0.2500 0.2500 (  5081 PWs)   bands (ev):

   -46.2708 -22.5379 -22.5375 -22.5199  -6.7113  -6.0648  -6.0279  -5.0556
    -5.0397  -4.9969  -4.8803  -4.8770   3.4670   6.6489   6.7597   7.1149
     7.6749   7.8928   9.1415   9.1751   9.6220   9.6495  13.2085  13.3199
    13.5799  14.9361

          k = 0.1500 0.2500 0.3500 (  5080 PWs)   bands (ev):

   -46.2705 -22.5546 -22.5370 -22.5193  -6.5969  -6.0425  -5.9794  -5.0595
    -5.0324  -4.9799  -4.8859  -4.8592   3.3217   6.4401   6.6723   6.8590
     7.4558   7.9143   8.8589   9.2861   9.6282   9.7652  13.1651  13.6379
    13.8588  14.8943

          k = 0.1500 0.2500 0.4500 (  5077 PWs)   bands (ev):

   -46.2703 -22.5650 -22.5365 -22.5188  -6.5348  -6.0245  -5.9418  -5.0599
    -5.0258  -4.9673  -4.8852  -4.8578   3.2344   6.1487   6.5990   6.8521
     7.4036   8.0065   8.6486   9.3569   9.5382   9.8219  13.1267  13.8743
    14.0605  14.9765

          k = 0.1500 0.3500 0.3500 (  5081 PWs)   bands (ev):

   -46.2701 -22.5540 -22.5537 -22.5186  -6.5227  -6.0003  -5.9406  -5.0530
    -5.0228  -4.9627  -4.8923  -4.8056   3.2242   6.4245   6.4357   6.6549
     7.0611   7.8809   8.9030   9.1063   9.4001   9.9772  13.4778  13.6469
    14.0561  15.1699

          k = 0.1500 0.3500 0.4500 (  5079 PWs)   bands (ev):

   -46.2699 -22.5642 -22.5534 -22.5182  -6.4948  -5.9607  -5.9076  -5.0499
    -5.0099  -4.9520  -4.9023  -4.7730   3.1595   6.1328   6.4532   6.5825
     6.9617   7.9231   8.7162   9.1268   9.2162  10.1006  13.5347  13.8312
    14.2160  15.4527

          k = 0.1500 0.4500 0.4500 (  5073 PWs)   bands (ev):

   -46.2697 -22.5638 -22.5637 -22.5178  -6.4898  -5.8965  -5.8857  -5.0454
    -4.9858  -4.9406  -4.9254  -4.7236   3.1057   6.0271   6.3080   6.6425
     6.7003   7.9360   8.5208   9.0548   9.0766  10.2677  13.7972  13.8247
    14.3457  15.7672

          k = 0.2500 0.2500 0.2500 (  5070 PWs)   bands (ev):

   -46.2705 -22.5373 -22.5368 -22.5368  -6.5858  -6.0411  -6.0410  -5.0440
    -5.0440  -4.9659  -4.8525  -4.8525   3.4310   6.4983   6.4983   7.0656
     7.3669   7.3669   9.2570   9.4675   9.4676   9.7046  13.2537  13.5493
    13.5493  14.9342

          k = 0.2500 0.2500 0.3500 (  5072 PWs)   bands (ev):

   -46.2701 -22.5539 -22.5364 -22.5361  -6.4751  -6.0545  -5.9979  -5.0423
    -5.0269  -4.9280  -4.8376  -4.8305   3.3733   6.3046   6.3791   6.6220
     7.2315   7.2915   8.9323   9.5376   9.5728   9.8150  13.2569  13.6870
    13.8378  15.1441

          k = 0.2500 0.2500 0.4500 (  5073 PWs)   bands (ev):

   -46.2699 -22.5643 -22.5360 -22.5357  -6.4190  -6.0628  -5.9564  -5.0391
    -5.0158  -4.8869  -4.8448  -4.8189   3.3294   6.1499   6.1775   6.5114
     7.1881   7.3473   8.6688   9.5151   9.6077   9.8697  13.2834  13.8542
    14.0434  15.4452

          k = 0.2500 0.3500 0.3500 (  5057 PWs)   bands (ev):

   -46.2698 -22.5533 -22.5530 -22.5356  -6.3839  -6.0422  -6.0012  -5.0292
    -5.0100  -4.8820  -4.8167  -4.7761   3.4018   6.1338   6.1896   6.4227
     6.7449   7.2174   8.4936   9.6330   9.6583   9.9881  13.4520  13.7540
    13.9807  15.4801

          k = 0.2500 0.3500 0.4500 (  5063 PWs)   bands (ev):

   -46.2696 -22.5635 -22.5527 -22.5351  -6.3526  -6.0385  -5.9708  -5.0239
    -4.9950  -4.8419  -4.8159  -4.7426   3.4056   6.0024   6.1294   6.1781
     6.6540   7.2221   8.1214   9.6397   9.6812  10.0992  13.5879  13.8492
    14.1384  15.8549

          k = 0.2500 0.4500 0.4500 (  5070 PWs)   bands (ev):

   -46.2694 -22.5631 -22.5630 -22.5347  -6.3454  -5.9870  -5.9776  -5.0178
    -4.9769  -4.8129  -4.8036  -4.6927   3.4374   5.9791   6.0409   6.0510
     6.3547   7.2177   7.6751   9.6765   9.6795  10.2588  13.8211  13.8660
    14.2528  16.1996

          k = 0.3500 0.3500 0.3500 (  5055 PWs)   bands (ev):

   -46.2695 -22.5526 -22.5524 -22.5523  -6.2665  -6.0546  -6.0545  -5.0025
    -5.0025  -4.8077  -4.7426  -4.7426   3.5875   5.8575   5.8576   6.3266
     6.6757   6.6758   7.8312   9.9156   9.9157  10.0353  13.6103  13.9588
    13.9588  15.8684

          k = 0.3500 0.3500 0.4500 (  5056 PWs)   bands (ev):

   -46.2692 -22.5628 -22.5521 -22.5519  -6.2278  -6.0848  -6.0251  -4.9988
    -4.9856  -4.7532  -4.7289  -4.6984   3.7000   5.6629   5.8062   6.0789
     6.5637   6.6619   7.3366   9.9629  10.0091  10.1296  13.7897  13.9646
    14.1323  16.2715

          k = 0.3500 0.4500 0.4500 (  5051 PWs)   bands (ev):

   -46.2690 -22.5624 -22.5623 -22.5516  -6.2004  -6.0613  -6.0532  -4.9899
    -4.9741  -4.7007  -4.6912  -4.6542   3.9098   5.5793   5.6113   5.9540
     6.3461   6.6172   6.7390  10.0686  10.0710  10.2501  13.9797  14.0290
    14.2071  16.6528

          k = 0.4500 0.4500 0.4500 (  5034 PWs)   bands (ev):

   -46.2688 -22.5620 -22.5619 -22.5619  -6.1182  -6.0947  -6.0946  -4.9727
    -4.9727  -4.6355  -4.6262  -4.6262   4.4038   5.3818   5.3819   5.8426
     5.9546   6.3471   6.3472  10.2374  10.2375  10.2517  14.1423  14.1876
    14.1876  17.0223

          k =-0.0500 0.1500 0.0500 (  5074 PWs)   bands (ev):

   -46.2719 -22.5221 -22.5110 -22.5110  -7.1381  -6.1633  -6.1633  -5.0217
    -5.0195  -5.0121  -4.9048  -4.8664   4.2069   6.8673   6.8973   7.1634
     8.8559   8.9003   9.2090   9.2958   9.5374   9.5453  12.3660  12.6966
    12.6983  14.4765

          k =-0.0500 0.2500 0.0500 (  5093 PWs)   bands (ev):

   -46.2716 -22.5393 -22.5104 -22.5104  -6.9931  -6.1126  -6.1085  -5.0377
    -5.0295  -5.0112  -4.9612  -4.8599   3.8394   6.8534   7.0273   7.1527
     8.5115   8.5790   9.1513   9.2531   9.5551   9.6496  12.3690  13.1714
    13.1787  14.4767

          k =-0.0500 0.3500 0.0500 (  5090 PWs)   bands (ev):

   -46.2712 -22.5564 -22.5098 -22.5098  -6.8407  -6.0633  -6.0472  -5.0632
    -5.0384  -5.0145  -5.0103  -4.8554   3.5553   6.4522   7.1999   7.2979
     8.1654   8.2204   9.0829   9.4078   9.5979  10.0239  12.3707  13.6077
    13.6156  14.3392

          k =-0.0500 0.4500 0.0500 (  5073 PWs)   bands (ev):

   -46.2710 -22.5669 -22.5094 -22.5094  -6.7420  -6.0341  -6.0048  -5.0945
    -5.0433  -5.0364  -5.0097  -4.8538   3.4103   6.1259   7.3722   7.5366
     7.8879   7.9006   9.0398   9.4845   9.6303  10.4628  12.3691  13.6081
    13.8671  13.8731

          k = 0.1500 0.0500 0.1500 (  5079 PWs)   bands (ev):

   -46.2717 -22.5218 -22.5215 -22.5107  -7.0540  -6.1403  -6.1306  -5.0315
    -5.0209  -5.0178  -4.9014  -4.8809   3.9905   6.8209   6.9512   7.3318
     8.5369   8.7341   9.0954   9.3362   9.3806   9.5626  12.6752  12.7217
    12.9487  14.7339

          k =-0.0500 0.2500 0.1500 (  5077 PWs)   bands (ev):

   -46.2713 -22.5389 -22.5210 -22.5100  -6.9150  -6.0994  -6.0772  -5.0477
    -5.0284  -5.0182  -4.9299  -4.8761   3.6946   6.7728   7.0474   7.2609
     8.2037   8.4935   8.8846   9.3256   9.3826   9.7543  12.6966  13.1766
    13.3461  14.7981

          k = 0.2500 0.0500 0.1500 (  5077 PWs)   bands (ev):

   -46.2713 -22.5388 -22.5210 -22.5101  -6.9151  -6.0995  -6.0771  -5.0477
    -5.0284  -5.0182  -4.9299  -4.8761   3.6946   6.7729   7.0475   7.2610
     8.2038   8.4934   8.8846   9.3255   9.3826   9.7542  12.6967  13.1765
    13.3460  14.7982

          k =-0.0500 0.3500 0.1500 (  5080 PWs)   bands (ev):

   -46.2710 -22.5559 -22.5203 -22.5094  -6.7731  -6.0513  -6.0242  -5.0684
    -5.0346  -5.0179  -4.9601  -4.8714   3.4490   6.4466   7.1143   7.3249
     7.9098   8.2433   8.8804   9.3354   9.3887  10.0460  12.6915  13.6112
    13.7339  14.5002

          k = 0.3500 0.0500 0.1500 (  5080 PWs)   bands (ev):

   -46.2710 -22.5558 -22.5203 -22.5094  -6.7732  -6.0514  -6.0241  -5.0684
    -5.0346  -5.0178  -4.9601  -4.8714   3.4490   6.4468   7.1144   7.3249
     7.9098   8.2435   8.8801   9.3354   9.3887  10.0459  12.6915  13.6111
    13.7339  14.5002

          k =-0.0500 0.4500 0.1500 (  5079 PWs)   bands (ev):

   -46.2708 -22.5664 -22.5199 -22.5090  -6.6844  -6.0128  -5.9954  -5.0859
    -5.0404  -5.0175  -4.9714  -4.8722   3.3185   6.1341   7.2181   7.4644
     7.7659   7.9507   8.9667   9.3146   9.4157  10.2726  12.6791  13.8689
    13.9713  14.0150

          k = 0.4500 0.0500 0.1500 (  5079 PWs)   bands (ev):

   -46.2708 -22.5663 -22.5199 -22.5090  -6.6845  -6.0128  -5.9953  -5.0859
    -5.0404  -5.0175  -4.9714  -4.8722   3.3185   6.1342   7.2183   7.4644
     7.7660   7.9507   8.9663   9.3146   9.4157  10.2725  12.6792  13.8689
    13.9713  14.0149

          k = 0.2500 0.0500 0.2500 (  5076 PWs)   bands (ev):

   -46.2710 -22.5383 -22.5378 -22.5094  -6.7924  -6.0740  -6.0198  -5.0523
    -5.0321  -5.0233  -4.9023  -4.8939   3.4775   6.7120   7.0292   7.2064
     7.9945   8.1460   8.7067   9.0945   9.5907   9.8453  13.1331  13.2100
    13.6389  14.9289

          k =-0.0500 0.3500 0.2500 (  5080 PWs)   bands (ev):

   -46.2707 -22.5551 -22.5373 -22.5087  -6.6786  -6.0290  -5.9627  -5.0612
    -5.0348  -5.0259  -4.9152  -4.8745   3.2813   6.4481   6.8975   7.2683
     7.7810   8.0945   8.5077   9.0497   9.6680   9.9235  13.1591  13.6095
    13.9441  14.7486

          k = 0.3500 0.0500 0.2500 (  5080 PWs)   bands (ev):

   -46.2707 -22.5551 -22.5373 -22.5088  -6.6788  -6.0290  -5.9625  -5.0612
    -5.0348  -5.0259  -4.9152  -4.8745   3.2813   6.4483   6.8974   7.2684
     7.7809   8.0945   8.5078   9.0497   9.6681   9.9234  13.1591  13.6094
    13.9441  14.7486

          k =-0.0500 0.4500 0.2500 (  5084 PWs)   bands (ev):

   -46.2705 -22.5656 -22.5369 -22.5083  -6.6161  -5.9830  -5.9315  -5.0707
    -5.0388  -5.0285  -4.9093  -4.8720   3.1709   6.1454   6.9548   7.2161
     7.7786   8.0314   8.4255   9.0788   9.6263   9.9812  13.1512  13.8676
    14.1438  14.5911

          k = 0.4500 0.0500 0.2500 (  5084 PWs)   bands (ev):

   -46.2705 -22.5655 -22.5369 -22.5084  -6.6163  -5.9830  -5.9313  -5.0707
    -5.0388  -5.0285  -4.9092  -4.8720   3.1709   6.1456   6.9548   7.2161
     7.7786   8.0316   8.4253   9.0788   9.6263   9.9811  13.1512  13.8675
    14.1438  14.5911

          k = 0.3500 0.0500 0.3500 (  5079 PWs)   bands (ev):

   -46.2703 -22.5544 -22.5541 -22.5081  -6.6106  -5.9670  -5.8979  -5.0580
    -5.0391  -5.0265  -4.9355  -4.8210   3.1207   6.4258   6.4937   7.3205
     7.6597   7.9552   8.4450   8.8068   9.6255   9.9732  13.5695  13.6315
    14.1739  14.9804

          k =-0.0500 0.4500 0.3500 (  5079 PWs)   bands (ev):

   -46.2701 -22.5647 -22.5538 -22.5077  -6.5833  -5.9017  -5.8612  -5.0612
    -5.0384  -5.0328  -4.9450  -4.7882   3.0257   6.1352   6.5021   7.2788
     7.6022   8.0918   8.2838   8.7598   9.4003  10.1084  13.5955  13.8652
    14.3392  15.1027

          k = 0.4500 0.0500 0.3500 (  5079 PWs)   bands (ev):

   -46.2701 -22.5647 -22.5538 -22.5077  -6.5835  -5.9016  -5.8610  -5.0612
    -5.0384  -5.0328  -4.9450  -4.7882   3.0257   6.1353   6.5021   7.2788
     7.6020   8.0919   8.2838   8.7597   9.4003  10.1085  13.5955  13.8651
    14.3391  15.1026

          k = 0.4500 0.0500 0.4500 (  5100 PWs)   bands (ev):

   -46.2699 -22.5642 -22.5642 -22.5073  -6.5784  -5.8271  -5.8149  -5.0610
    -5.0372  -5.0340  -4.9681  -4.7398   2.9376   6.0346   6.3159   7.3705
     7.4120   8.2019   8.3070   8.5458   9.0978  10.2734  13.8577  13.8674
    14.4820  15.3339

          k =-0.1500 0.2500 0.1500 (  5084 PWs)   bands (ev):

   -46.2711 -22.5384 -22.5207 -22.5205  -6.8357  -6.0823  -6.0653  -5.0542
    -5.0336  -5.0105  -4.9070  -4.8759   3.6105   6.7470   6.8358   7.3123
     8.0250   8.1671   8.9891   9.3724   9.4648   9.6127  12.9147  13.3190
    13.3336  15.1734

          k =-0.1500 0.3500 0.1500 (  5082 PWs)   bands (ev):

   -46.2708 -22.5554 -22.5200 -22.5198  -6.7003  -6.0511  -6.0128  -5.0694
    -5.0279  -5.0012  -4.9301  -4.8709   3.4057   6.4498   6.8322   7.1926
     7.7921   8.2250   8.6808   9.4297   9.4794   9.8825  12.8540  13.6999
    13.7007  14.6629

          k =-0.1500 0.4500 0.1500 (  5084 PWs)   bands (ev):

   -46.2706 -22.5659 -22.5196 -22.5194  -6.6176  -6.0311  -5.9764  -5.0762
    -5.0240  -4.9895  -4.9476  -4.8737   3.2921   6.1409   6.8225   7.2584
     7.6795   8.2949   8.4976   9.4633   9.4726  10.0165  12.7929  13.9295
    13.9424  14.4315

          k = 0.2500 0.1500 0.2500 (  5081 PWs)   bands (ev):

   -46.2708 -22.5379 -22.5374 -22.5200  -6.7113  -6.0648  -6.0278  -5.0556
    -5.0397  -4.9969  -4.8803  -4.8770   3.4670   6.6490   6.7597   7.1149
     7.6749   7.8928   9.1416   9.1752   9.6222   9.6492  13.2085  13.3198
    13.5799  14.9361

          k =-0.1500 0.3500 0.2500 (  5080 PWs)   bands (ev):

   -46.2705 -22.5547 -22.5369 -22.5193  -6.5969  -6.0424  -5.9796  -5.0595
    -5.0324  -4.9799  -4.8859  -4.8592   3.3217   6.4399   6.6722   6.8591
     7.4559   7.9142   8.8587   9.2863   9.6282   9.7653  13.1650  13.6379
    13.8588  14.8943

          k = 0.3500 0.1500 0.2500 (  5080 PWs)   bands (ev):

   -46.2705 -22.5546 -22.5369 -22.5193  -6.5970  -6.0425  -5.9794  -5.0595
    -5.0324  -4.9799  -4.8858  -4.8592   3.3217   6.4401   6.6723   6.8590
     7.4559   7.9141   8.8589   9.2862   9.6281   9.7653  13.1651  13.6379
    13.8588  14.8943

          k =-0.1500 0.4500 0.2500 (  5077 PWs)   bands (ev):

   -46.2703 -22.5651 -22.5365 -22.5188  -6.5348  -6.0244  -5.9420  -5.0599
    -5.0258  -4.9673  -4.8852  -4.8578   3.2344   6.1485   6.5989   6.8522
     7.4038   8.0065   8.6484   9.3571   9.5382   9.8221  13.1266  13.8744
    14.0604  14.9766

          k = 0.4500 0.1500 0.2500 (  5077 PWs)   bands (ev):

   -46.2703 -22.5650 -22.5365 -22.5189  -6.5349  -6.0244  -5.9418  -5.0599
    -5.0258  -4.9673  -4.8852  -4.8579   3.2344   6.1487   6.5990   6.8521
     7.4037   8.0064   8.6486   9.3570   9.5381   9.8221  13.1266  13.8743
    14.0604  14.9765

          k = 0.3500 0.1500 0.3500 (  5081 PWs)   bands (ev):

   -46.2701 -22.5540 -22.5537 -22.5187  -6.5228  -6.0003  -5.9405  -5.0530
    -5.0228  -4.9627  -4.8923  -4.8057   3.2242   6.4257   6.4345   6.6549
     7.0610   7.8808   8.9031   9.1064   9.3999   9.9773  13.4778  13.6469
    14.0561  15.1699

          k =-0.1500 0.4500 0.3500 (  5079 PWs)   bands (ev):

   -46.2699 -22.5643 -22.5534 -22.5182  -6.4948  -5.9606  -5.9077  -5.0499
    -5.0099  -4.9520  -4.9023  -4.7730   3.1595   6.1326   6.4533   6.5824
     6.9619   7.9231   8.7160   9.1268   9.2163  10.1006  13.5346  13.8313
    14.2160  15.4528

          k = 0.4500 0.1500 0.3500 (  5079 PWs)   bands (ev):

   -46.2699 -22.5642 -22.5534 -22.5182  -6.4949  -5.9606  -5.9075  -5.0499
    -5.0099  -4.9520  -4.9023  -4.7730   3.1595   6.1328   6.4533   6.5824
     6.9618   7.9230   8.7162   9.1268   9.2162  10.1007  13.5346  13.8312
    14.2160  15.4527

          k = 0.4500 0.1500 0.4500 (  5073 PWs)   bands (ev):

   -46.2697 -22.5638 -22.5637 -22.5178  -6.4900  -5.8964  -5.8856  -5.0454
    -4.9858  -4.9406  -4.9254  -4.7237   3.1058   6.0272   6.3082   6.6425
     6.7002   7.9359   8.5208   9.0548   9.0765  10.2679  13.7972  13.8247
    14.3457  15.7671

          k =-0.2500 0.3500 0.2500 (  5072 PWs)   bands (ev):

   -46.2701 -22.5539 -22.5364 -22.5361  -6.4750  -6.0544  -5.9980  -5.0423
    -5.0269  -4.9280  -4.8376  -4.8304   3.3733   6.3045   6.3790   6.6220
     7.2319   7.2913   8.9322   9.5376   9.5729   9.8149  13.2569  13.6870
    13.8378  15.1441

          k =-0.2500 0.4500 0.2500 (  5073 PWs)   bands (ev):

   -46.2699 -22.5643 -22.5359 -22.5357  -6.4189  -6.0627  -5.9566  -5.0391
    -5.0158  -4.8869  -4.8448  -4.8189   3.3294   6.1497   6.1774   6.5115
     7.1883   7.3472   8.6687   9.5151   9.6079   9.8696  13.2833  13.8542
    14.0434  15.4452

          k = 0.3500 0.2500 0.3500 (  5057 PWs)   bands (ev):

   -46.2698 -22.5532 -22.5530 -22.5356  -6.3840  -6.0422  -6.0011  -5.0292
    -5.0100  -4.8820  -4.8167  -4.7761   3.4018   6.1338   6.1896   6.4228
     6.7450   7.2173   8.4936   9.6330   9.6582   9.9882  13.4520  13.7540
    13.9807  15.4801

          k =-0.2500 0.4500 0.3500 (  5063 PWs)   bands (ev):

   -46.2696 -22.5636 -22.5527 -22.5351  -6.3526  -6.0384  -5.9709  -5.0239
    -4.9950  -4.8418  -4.8160  -4.7426   3.4056   6.0023   6.1294   6.1782
     6.6542   7.2220   8.1214   9.6395   9.6814  10.0992  13.5878  13.8492
    14.1384  15.8549

          k = 0.4500 0.2500 0.3500 (  5063 PWs)   bands (ev):

   -46.2696 -22.5635 -22.5527 -22.5352  -6.3528  -6.0384  -5.9708  -5.0239
    -4.9950  -4.8418  -4.8159  -4.7426   3.4056   6.0024   6.1295   6.1780
     6.6542   7.2219   8.1214   9.6396   9.6813  10.0994  13.5878  13.8492
    14.1384  15.8548

          k = 0.4500 0.2500 0.4500 (  5070 PWs)   bands (ev):

   -46.2694 -22.5631 -22.5630 -22.5348  -6.3456  -5.9869  -5.9775  -5.0178
    -4.9769  -4.8129  -4.8036  -4.6928   3.4374   5.9791   6.0410   6.0508
     6.3548   7.2175   7.6751   9.6765   9.6794  10.2589  13.8211  13.8660
    14.2528  16.1996

          k =-0.3500 0.4500 0.3500 (  5056 PWs)   bands (ev):

   -46.2692 -22.5629 -22.5520 -22.5519  -6.2277  -6.0847  -6.0253  -4.9988
    -4.9856  -4.7532  -4.7289  -4.6983   3.7000   5.6629   5.8063   6.0788
     6.5637   6.6620   7.3365   9.9630  10.0090  10.1295  13.7897  13.9646
    14.1323  16.2715

          k = 0.4500 0.3500 0.4500 (  5051 PWs)   bands (ev):

   -46.2690 -22.5624 -22.5623 -22.5516  -6.2006  -6.0612  -6.0531  -4.9899
    -4.9741  -4.7006  -4.6912  -4.6542   3.9099   5.5793   5.6112   5.9540
     6.3462   6.6171   6.7390  10.0685  10.0710  10.2503  13.9797  14.0290
    14.2072  16.6528

     the Fermi energy is    10.4293 ev

!    total energy              =    -364.95739693 Ry
     Harris-Foulkes estimate   =    -364.95739693 Ry
     estimated scf accuracy    <          5.2E-09 Ry

     The total energy is the sum of the following terms:

     one-electron contribution =     -82.63579126 Ry
     hartree contribution      =      70.67820936 Ry
     xc contribution           =     -85.79420105 Ry
     ewald contribution        =    -267.21180329 Ry
     smearing contrib. (-TS)   =       0.00618931 Ry

     convergence has been achieved in  13 iterations

     Forces acting on atoms (Ry/au):

     atom    1 type  1   force =     0.00000000   -0.00037816    0.00000000
     atom    2 type  2   force =     0.00000000   -0.00007313    0.00000000
     atom    3 type  3   force =     0.00000000    0.00001338    0.00000000
     atom    4 type  3   force =     0.00000000    0.00042453    0.00000000
     atom    5 type  3   force =     0.00000000    0.00001338    0.00000000

     Total force =     0.000425     Total SCF correction =     0.000002


     entering subroutine stress ...

          total   stress  (Ry/bohr**3)                   (kbar)     P=   -2.42
  -0.00001648   0.00000000   0.00000000         -2.42      0.00      0.00
   0.00000000  -0.00001644   0.00000000          0.00     -2.42      0.00
   0.00000000   0.00000000  -0.00001648          0.00      0.00     -2.42


     BFGS Geometry Optimization

     bfgs converged in   1 scf cycles and   0 bfgs steps
     (criteria: energy <  1.0E-04, force <  1.0E-03)

     End of BFGS Geometry Optimization

     Final energy   =    -364.9573969272 Ry
Begin final coordinates

ATOMIC_POSITIONS (crystal)
Pb       0.000000000   0.000000000   0.000000000    0   0   0
Ti       0.500000000   0.499000000   0.500000000    0   0   0
O        0.500000000   0.500000000   0.000000000
O        0.500000000   0.000000000   0.500000000
O        0.000000000   0.500000000   0.500000000
End final coordinates



     Writing output data file PbTiO3.save

     init_run     :     15.18s CPU     18.28s WALL (       1 calls)
     electrons    :    470.22s CPU    582.44s WALL (       1 calls)
     forces       :      7.83s CPU      7.92s WALL (       1 calls)
     stress       :     19.87s CPU     20.07s WALL (       1 calls)

     Called by init_run:
     wfcinit      :     11.63s CPU     14.69s WALL (       1 calls)
     potinit      :      0.31s CPU      0.33s WALL (       1 calls)

     Called by electrons:
     c_bands      :    392.94s CPU    484.51s WALL (      13 calls)
     sum_band     :     60.52s CPU     80.78s WALL (      13 calls)
     v_of_rho     :      3.69s CPU      3.88s WALL (      14 calls)
     newd         :     13.68s CPU     13.82s WALL (      14 calls)
     mix_rho      :      0.22s CPU      0.25s WALL (      13 calls)

     Called by c_bands:
     init_us_2    :      6.73s CPU      7.76s WALL (    2175 calls)
     cegterg      :    381.45s CPU    472.17s WALL (     975 calls)

     Called by *egterg:
     h_psi        :    240.32s CPU    327.16s WALL (    4267 calls)
     s_psi        :     35.81s CPU     37.73s WALL (    4267 calls)
     g_psi        :      0.74s CPU      1.00s WALL (    3217 calls)
     cdiaghg      :      7.86s CPU      8.87s WALL (    4192 calls)

     Called by h_psi:
     add_vuspsi   :     36.49s CPU     37.84s WALL (    4267 calls)

     General routines
     calbec       :     54.91s CPU     57.70s WALL (    5392 calls)
     fft          :      1.30s CPU      1.47s WALL (     245 calls)
     ffts         :      0.05s CPU      0.05s WALL (      27 calls)
     fftw         :    171.88s CPU    259.98s WALL (  163138 calls)
     interpolate  :      0.21s CPU      0.25s WALL (      27 calls)
     davcio       :      0.00s CPU      0.04s WALL (      75 calls)

     Parallel routines
     fft_scatter  :      7.05s CPU     11.48s WALL (  163410 calls)

     PWSCF        :  8m33.69s CPU    10m29.38s WALL


   This run was terminated on:  15:38:46  12May2020            

=------------------------------------------------------------------------------=
   JOB DONE.
=------------------------------------------------------------------------------=
