
     Program PWSCF v.6.4.1 starts on 14May2020 at 21:13:29 

     This program is part of the open-source Quantum ESPRESSO suite
     for quantum simulation of materials; please cite
         "P. Giannozzi et al., J. Phys.:Condens. Matter 21 395502 (2009);
         "P. Giannozzi et al., J. Phys.:Condens. Matter 29 465901 (2017);
          URL http://www.quantum-espresso.org", 
     in publications or presentations arising from this work. More details at
     http://www.quantum-espresso.org/quote

     Parallel version (MPI), running on     1 processors

     MPI processes distributed on     1 nodes
     Reading input from PTO_7.6_10_0.548.pw.in
Warning: card  &CELL ignored
Warning: card   CELL_DYNAMICS = 'BFGS', ignored
Warning: card  / ignored

     Current dimensions of program PWSCF are:
     Max number of different atomic species (ntypx) = 10
     Max number of k-points (npk) =  40000
     Max angular momentum in pseudopotentials (lmaxx) =  3
     Message from routine read_upf::
     Pseudo file Pb.pbe-dn-rrkjus_psl.0.2.2.UPF has been fixed on the fly.
To avoid this message in the future, permanently fix 
 your pseudo files following these instructions: 
https://gitlab.com/QEF/q-e/blob/master/upftools/how_to_fix_upf.md
     Message from routine read_upf::
     Pseudo file O.pbe-n-rrkjus_psl.0.1.UPF has been fixed on the fly.
To avoid this message in the future, permanently fix 
 your pseudo files following these instructions: 
https://gitlab.com/QEF/q-e/blob/master/upftools/how_to_fix_upf.md
               file Pb.pbe-dn-rrkjus_psl.0.2.2.UPF: wavefunction(s)  6S renormalized

     Subspace diagonalization in iterative solution of the eigenvalue problem:
     a serial algorithm will be used


     G-vector sticks info
     --------------------
     sticks:   dense  smooth     PW     G-vecs:    dense   smooth      PW
     Sum        3697    1481    421               167901    42499    6619



     bravais-lattice index     =            1
     lattice parameter (alat)  =       7.6000  a.u.
     unit-cell volume          =     438.9760 (a.u.)^3
     number of atoms/cell      =            5
     number of atomic types    =            3
     number of electrons       =        44.00
     number of Kohn-Sham states=           26
     kinetic-energy cutoff     =      80.0000  Ry
     charge density cutoff     =     800.0000  Ry
     convergence threshold     =      1.0E-08
     mixing beta               =       0.7000
     number of iterations used =            8  plain     mixing
     Exchange-correlation      = PBE ( 1  4  3  4 0 0)
     nstep                     =           50


     celldm(1)=   7.600000  celldm(2)=   0.000000  celldm(3)=   0.000000
     celldm(4)=   0.000000  celldm(5)=   0.000000  celldm(6)=   0.000000

     crystal axes: (cart. coord. in units of alat)
               a(1) = (   1.000000   0.000000   0.000000 )  
               a(2) = (   0.000000   1.000000   0.000000 )  
               a(3) = (   0.000000   0.000000   1.000000 )  

     reciprocal axes: (cart. coord. in units 2 pi/alat)
               b(1) = (  1.000000  0.000000  0.000000 )  
               b(2) = (  0.000000  1.000000  0.000000 )  
               b(3) = (  0.000000  0.000000  1.000000 )  


     PseudoPot. # 1 for Pb read from file:
     ./Pb.pbe-dn-rrkjus_psl.0.2.2.UPF
     MD5 check sum: 7afc420059c37d6888fc09c0f121e83f
     Pseudo is Ultrasoft + core correction, Zval = 14.0
     Generated using "atomic" code by A. Dal Corso v.5.0.2 svn rev. 9415
     Using radial grid of 1281 points,  6 beta functions with: 
                l(1) =   0
                l(2) =   0
                l(3) =   1
                l(4) =   1
                l(5) =   2
                l(6) =   2
     Q(r) pseudized with 0 coefficients 


     PseudoPot. # 2 for Ti read from file:
     ./Ti.pbe-sp-van_ak.UPF
     MD5 check sum: 8e4df49b7f0d34bbd5052bf3f5ea0213
     Pseudo is Ultrasoft, Zval = 12.0
     Generated by new atomic code, or converted to UPF format
     Using radial grid of  851 points,  6 beta functions with: 
                l(1) =   0
                l(2) =   0
                l(3) =   1
                l(4) =   1
                l(5) =   2
                l(6) =   2
     Q(r) pseudized with  8 coefficients,  rinner =    1.000   1.000   1.000
                                                       1.000   1.000

     PseudoPot. # 3 for O  read from file:
     ./O.pbe-n-rrkjus_psl.0.1.UPF
     MD5 check sum: e057bbcf3229fb5d8c36c0c92f9568b4
     Pseudo is Ultrasoft + core correction, Zval =  6.0
     Generated using "atomic" code by A. Dal Corso v.5.0.2 svn rev. 9415
     Using radial grid of 1095 points,  4 beta functions with: 
                l(1) =   0
                l(2) =   0
                l(3) =   1
                l(4) =   1
     Q(r) pseudized with 0 coefficients 


     atomic species   valence    mass     pseudopotential
        Pb            14.00   207.20000     Pb( 1.00)
        Ti            12.00    47.87000     Ti( 1.00)
        O              6.00    16.00000     O ( 1.00)

      8 Sym. Ops. (no inversion) found



   Cartesian axes

     site n.     atom                  positions (alat units)
         1           Pb  tau(   1) = (   0.0000000   0.0000000   0.0000000  )
         2           Ti  tau(   2) = (   0.5000000   0.5480000   0.5000000  )
         3           O   tau(   3) = (   0.5000000   0.5000000   0.0000000  )
         4           O   tau(   4) = (   0.5000000   0.0000000   0.5000000  )
         5           O   tau(   5) = (   0.0000000   0.5000000   0.5000000  )

     number of k points=    75  Marzari-Vanderbilt smearing, width (Ry)=  0.0250
                       cart. coord. in units 2pi/alat
        k(    1) = (   0.0500000   0.0500000   0.0500000), wk =   0.0160000
        k(    2) = (   0.0500000   0.0500000   0.1500000), wk =   0.0320000
        k(    3) = (   0.0500000   0.0500000   0.2500000), wk =   0.0320000
        k(    4) = (   0.0500000   0.0500000   0.3500000), wk =   0.0320000
        k(    5) = (   0.0500000   0.0500000   0.4500000), wk =   0.0320000
        k(    6) = (   0.0500000   0.1500000   0.1500000), wk =   0.0320000
        k(    7) = (   0.0500000   0.1500000   0.2500000), wk =   0.0320000
        k(    8) = (   0.0500000   0.1500000   0.3500000), wk =   0.0320000
        k(    9) = (   0.0500000   0.1500000   0.4500000), wk =   0.0320000
        k(   10) = (   0.0500000   0.2500000   0.2500000), wk =   0.0320000
        k(   11) = (   0.0500000   0.2500000   0.3500000), wk =   0.0320000
        k(   12) = (   0.0500000   0.2500000   0.4500000), wk =   0.0320000
        k(   13) = (   0.0500000   0.3500000   0.3500000), wk =   0.0320000
        k(   14) = (   0.0500000   0.3500000   0.4500000), wk =   0.0320000
        k(   15) = (   0.0500000   0.4500000   0.4500000), wk =   0.0320000
        k(   16) = (   0.1500000   0.1500000   0.1500000), wk =   0.0160000
        k(   17) = (   0.1500000   0.1500000   0.2500000), wk =   0.0320000
        k(   18) = (   0.1500000   0.1500000   0.3500000), wk =   0.0320000
        k(   19) = (   0.1500000   0.1500000   0.4500000), wk =   0.0320000
        k(   20) = (   0.1500000   0.2500000   0.2500000), wk =   0.0320000
        k(   21) = (   0.1500000   0.2500000   0.3500000), wk =   0.0320000
        k(   22) = (   0.1500000   0.2500000   0.4500000), wk =   0.0320000
        k(   23) = (   0.1500000   0.3500000   0.3500000), wk =   0.0320000
        k(   24) = (   0.1500000   0.3500000   0.4500000), wk =   0.0320000
        k(   25) = (   0.1500000   0.4500000   0.4500000), wk =   0.0320000
        k(   26) = (   0.2500000   0.2500000   0.2500000), wk =   0.0160000
        k(   27) = (   0.2500000   0.2500000   0.3500000), wk =   0.0320000
        k(   28) = (   0.2500000   0.2500000   0.4500000), wk =   0.0320000
        k(   29) = (   0.2500000   0.3500000   0.3500000), wk =   0.0320000
        k(   30) = (   0.2500000   0.3500000   0.4500000), wk =   0.0320000
        k(   31) = (   0.2500000   0.4500000   0.4500000), wk =   0.0320000
        k(   32) = (   0.3500000   0.3500000   0.3500000), wk =   0.0160000
        k(   33) = (   0.3500000   0.3500000   0.4500000), wk =   0.0320000
        k(   34) = (   0.3500000   0.4500000   0.4500000), wk =   0.0320000
        k(   35) = (   0.4500000   0.4500000   0.4500000), wk =   0.0160000
        k(   36) = (  -0.0500000   0.1500000   0.0500000), wk =   0.0160000
        k(   37) = (  -0.0500000   0.2500000   0.0500000), wk =   0.0160000
        k(   38) = (  -0.0500000   0.3500000   0.0500000), wk =   0.0160000
        k(   39) = (  -0.0500000   0.4500000   0.0500000), wk =   0.0160000
        k(   40) = (   0.1500000   0.0500000   0.1500000), wk =   0.0160000
        k(   41) = (  -0.0500000   0.2500000   0.1500000), wk =   0.0320000
        k(   42) = (   0.2500000   0.0500000   0.1500000), wk =   0.0320000
        k(   43) = (  -0.0500000   0.3500000   0.1500000), wk =   0.0320000
        k(   44) = (   0.3500000   0.0500000   0.1500000), wk =   0.0320000
        k(   45) = (  -0.0500000   0.4500000   0.1500000), wk =   0.0320000
        k(   46) = (   0.4500000   0.0500000   0.1500000), wk =   0.0320000
        k(   47) = (   0.2500000   0.0500000   0.2500000), wk =   0.0160000
        k(   48) = (  -0.0500000   0.3500000   0.2500000), wk =   0.0320000
        k(   49) = (   0.3500000   0.0500000   0.2500000), wk =   0.0320000
        k(   50) = (  -0.0500000   0.4500000   0.2500000), wk =   0.0320000
        k(   51) = (   0.4500000   0.0500000   0.2500000), wk =   0.0320000
        k(   52) = (   0.3500000   0.0500000   0.3500000), wk =   0.0160000
        k(   53) = (  -0.0500000   0.4500000   0.3500000), wk =   0.0320000
        k(   54) = (   0.4500000   0.0500000   0.3500000), wk =   0.0320000
        k(   55) = (   0.4500000   0.0500000   0.4500000), wk =   0.0160000
        k(   56) = (  -0.1500000   0.2500000   0.1500000), wk =   0.0160000
        k(   57) = (  -0.1500000   0.3500000   0.1500000), wk =   0.0160000
        k(   58) = (  -0.1500000   0.4500000   0.1500000), wk =   0.0160000
        k(   59) = (   0.2500000   0.1500000   0.2500000), wk =   0.0160000
        k(   60) = (  -0.1500000   0.3500000   0.2500000), wk =   0.0320000
        k(   61) = (   0.3500000   0.1500000   0.2500000), wk =   0.0320000
        k(   62) = (  -0.1500000   0.4500000   0.2500000), wk =   0.0320000
        k(   63) = (   0.4500000   0.1500000   0.2500000), wk =   0.0320000
        k(   64) = (   0.3500000   0.1500000   0.3500000), wk =   0.0160000
        k(   65) = (  -0.1500000   0.4500000   0.3500000), wk =   0.0320000
        k(   66) = (   0.4500000   0.1500000   0.3500000), wk =   0.0320000
        k(   67) = (   0.4500000   0.1500000   0.4500000), wk =   0.0160000
        k(   68) = (  -0.2500000   0.3500000   0.2500000), wk =   0.0160000
        k(   69) = (  -0.2500000   0.4500000   0.2500000), wk =   0.0160000
        k(   70) = (   0.3500000   0.2500000   0.3500000), wk =   0.0160000
        k(   71) = (  -0.2500000   0.4500000   0.3500000), wk =   0.0320000
        k(   72) = (   0.4500000   0.2500000   0.3500000), wk =   0.0320000
        k(   73) = (   0.4500000   0.2500000   0.4500000), wk =   0.0160000
        k(   74) = (  -0.3500000   0.4500000   0.3500000), wk =   0.0160000
        k(   75) = (   0.4500000   0.3500000   0.4500000), wk =   0.0160000

     Dense  grid:   167901 G-vectors     FFT dimensions: (  72,  72,  72)

     Smooth grid:    42499 G-vectors     FFT dimensions: (  45,  45,  45)

     Estimated max dynamical RAM per process >     792.70 MB

     Check: negative core charge=   -0.000006

     Initial potential from superposition of free atoms

     starting charge   42.99760, renormalised to   44.00000
     Starting wfcs are   31 randomized atomic wfcs

     total cpu time spent up to now is       17.8 secs

     Self-consistent Calculation

     iteration #  1     ecut=    80.00 Ry     beta= 0.70
     Davidson diagonalization with overlap
     ethr =  1.00E-02,  avg # of iterations =  2.0

     total cpu time spent up to now is       49.1 secs

     total energy              =    -364.38172122 Ry
     Harris-Foulkes estimate   =    -365.28522858 Ry
     estimated scf accuracy    <       1.13244634 Ry

     iteration #  2     ecut=    80.00 Ry     beta= 0.70
     Davidson diagonalization with overlap
     ethr =  2.57E-03,  avg # of iterations =  4.1

     total cpu time spent up to now is       96.6 secs

     total energy              =    -363.01521538 Ry
     Harris-Foulkes estimate   =    -365.89340448 Ry
     estimated scf accuracy    <      11.89389926 Ry

     iteration #  3     ecut=    80.00 Ry     beta= 0.70
     Davidson diagonalization with overlap
     ethr =  2.57E-03,  avg # of iterations =  5.0

     total cpu time spent up to now is      145.7 secs

     total energy              =    -364.92802975 Ry
     Harris-Foulkes estimate   =    -365.11185465 Ry
     estimated scf accuracy    <       0.50034875 Ry

     iteration #  4     ecut=    80.00 Ry     beta= 0.70
     Davidson diagonalization with overlap
     ethr =  1.14E-03,  avg # of iterations =  1.9

     total cpu time spent up to now is      175.6 secs

     total energy              =    -364.91514062 Ry
     Harris-Foulkes estimate   =    -364.96845674 Ry
     estimated scf accuracy    <       0.20723814 Ry

     iteration #  5     ecut=    80.00 Ry     beta= 0.70
     Davidson diagonalization with overlap
     ethr =  4.71E-04,  avg # of iterations =  4.7

     total cpu time spent up to now is      214.9 secs

     total energy              =    -364.95106606 Ry
     Harris-Foulkes estimate   =    -364.95200814 Ry
     estimated scf accuracy    <       0.00262710 Ry

     iteration #  6     ecut=    80.00 Ry     beta= 0.70
     Davidson diagonalization with overlap
     ethr =  5.97E-06,  avg # of iterations =  4.6

     total cpu time spent up to now is      262.1 secs

     total energy              =    -364.95189274 Ry
     Harris-Foulkes estimate   =    -364.95230115 Ry
     estimated scf accuracy    <       0.00142113 Ry

     iteration #  7     ecut=    80.00 Ry     beta= 0.70
     Davidson diagonalization with overlap
     ethr =  3.23E-06,  avg # of iterations =  2.6

     total cpu time spent up to now is      294.6 secs

     total energy              =    -364.95196154 Ry
     Harris-Foulkes estimate   =    -364.95213318 Ry
     estimated scf accuracy    <       0.00046918 Ry

     iteration #  8     ecut=    80.00 Ry     beta= 0.70
     Davidson diagonalization with overlap
     ethr =  1.07E-06,  avg # of iterations =  2.7

     total cpu time spent up to now is      329.0 secs

     total energy              =    -364.95205299 Ry
     Harris-Foulkes estimate   =    -364.95206353 Ry
     estimated scf accuracy    <       0.00003930 Ry

     iteration #  9     ecut=    80.00 Ry     beta= 0.70
     Davidson diagonalization with overlap
     ethr =  8.93E-08,  avg # of iterations =  3.3

     total cpu time spent up to now is      364.9 secs

     total energy              =    -364.95204857 Ry
     Harris-Foulkes estimate   =    -364.95206111 Ry
     estimated scf accuracy    <       0.00002998 Ry

     iteration # 10     ecut=    80.00 Ry     beta= 0.70
     Davidson diagonalization with overlap
     ethr =  6.81E-08,  avg # of iterations =  2.7

     total cpu time spent up to now is      397.3 secs

     total energy              =    -364.95205370 Ry
     Harris-Foulkes estimate   =    -364.95205379 Ry
     estimated scf accuracy    <       0.00000020 Ry

     iteration # 11     ecut=    80.00 Ry     beta= 0.70
     Davidson diagonalization with overlap
     ethr =  4.65E-10,  avg # of iterations =  4.1

     total cpu time spent up to now is      452.3 secs

     total energy              =    -364.95205421 Ry
     Harris-Foulkes estimate   =    -364.95205423 Ry
     estimated scf accuracy    <       0.00000009 Ry

     iteration # 12     ecut=    80.00 Ry     beta= 0.70
     Davidson diagonalization with overlap
     ethr =  2.07E-10,  avg # of iterations =  1.0

     total cpu time spent up to now is      480.8 secs

     total energy              =    -364.95205421 Ry
     Harris-Foulkes estimate   =    -364.95205421 Ry
     estimated scf accuracy    <       0.00000002 Ry

     iteration # 13     ecut=    80.00 Ry     beta= 0.70
     Davidson diagonalization with overlap
     ethr =  4.75E-11,  avg # of iterations =  3.0

     total cpu time spent up to now is      514.3 secs

     End of self-consistent calculation

          k = 0.0500 0.0500 0.0500 (  5326 PWs)   bands (ev):

   -46.8868 -23.1906 -23.1047 -23.1047  -7.6781  -6.7844  -6.6651  -5.8103
    -5.7931  -5.7928  -5.6538  -5.6312   3.7075   6.2950   6.3360   6.4520
     8.1679   8.1935   8.5931   8.6128   8.8708   8.9048  11.7575  12.2149
    12.2247  13.7682

          k = 0.0500 0.0500 0.1500 (  5304 PWs)   bands (ev):

   -46.8867 -23.1903 -23.1132 -23.1044  -7.6058  -6.7521  -6.6396  -5.8165
    -5.7994  -5.7925  -5.6811  -5.6330   3.4617   6.3454   6.4158   6.5935
     7.9609   8.1521   8.4820   8.5879   8.7470   8.8677  12.0529  12.2249
    12.2971  13.9664

          k = 0.0500 0.0500 0.2500 (  5285 PWs)   bands (ev):

   -46.8864 -23.1898 -23.1269 -23.1039  -7.4852  -6.6945  -6.5992  -5.8267
    -5.8098  -5.7918  -5.7342  -5.6321   3.1424   6.3267   6.5266   6.6461
     7.8455   7.9655   8.3893   8.5102   8.6693   8.9172  12.2256  12.4831
    12.5923  13.9741

          k = 0.0500 0.0500 0.3500 (  5290 PWs)   bands (ev):

   -46.8861 -23.1893 -23.1406 -23.1034  -7.3595  -6.6266  -6.5621  -5.8408
    -5.8222  -5.7912  -5.7887  -5.6326   2.8846   6.0019   6.7114   6.8219
     7.5985   7.7164   8.3421   8.4280   8.7609   9.2283  12.2265  12.8705
    12.9598  13.4077

          k = 0.0500 0.0500 0.4500 (  5310 PWs)   bands (ev):

   -46.8860 -23.1889 -23.1490 -23.1031  -7.2789  -6.5710  -6.5476  -5.8639
    -5.8325  -5.8107  -5.7907  -5.6342   2.7476   5.7481   6.9189   7.0734
     7.3195   7.4055   8.3486   8.3896   8.8149   9.6144  12.2109  12.7391
    13.0992  13.2152

          k = 0.0500 0.1500 0.1500 (  5296 PWs)   bands (ev):

   -46.8865 -23.1991 -23.1128 -23.1040  -7.5201  -6.7366  -6.6132  -5.8165
    -5.8081  -5.7980  -5.6736  -5.6549   3.2728   6.3016   6.4072   6.7322
     7.7461   7.9758   8.3374   8.6428   8.7091   8.9591  12.0534  12.4537
    12.5096  14.0608

          k = 0.0500 0.1500 0.2500 (  5301 PWs)   bands (ev):

   -46.8863 -23.1985 -23.1265 -23.1036  -7.4038  -6.6859  -6.5815  -5.8292
    -5.8164  -5.7976  -5.7047  -5.6477   3.0164   6.2511   6.5236   6.6966
     7.5979   7.8228   8.2289   8.4529   8.6878   9.0858  12.4331  12.5027
    12.7517  14.1132

          k = 0.0500 0.1500 0.3500 (  5301 PWs)   bands (ev):

   -46.8860 -23.1980 -23.1402 -23.1031  -7.2844  -6.6320  -6.5479  -5.8447
    -5.8245  -5.7973  -5.7305  -5.6475   2.7968   5.9898   6.6334   6.7825
     7.3690   7.6810   8.1565   8.4428   8.6682   9.2807  12.4483  12.8650
    13.0710  13.5646

          k = 0.0500 0.1500 0.4500 (  5306 PWs)   bands (ev):

   -46.8858 -23.1976 -23.1486 -23.1028  -7.2091  -6.5970  -6.5254  -5.8576
    -5.8322  -5.7971  -5.7385  -5.6523   2.6764   5.7502   6.7697   6.9305
     7.1864   7.4444   8.1831   8.5155   8.6376   9.4358  12.4300  13.0826
    13.1178  13.3002

          k = 0.0500 0.2500 0.2500 (  5314 PWs)   bands (ev):

   -46.8860 -23.2126 -23.1259 -23.1030  -7.2694  -6.6775  -6.5423  -5.8320
    -5.8210  -5.8032  -5.6861  -5.6589   2.8232   6.1211   6.4989   6.6393
     7.3849   7.5616   8.0178   8.4450   8.8464   9.2144  12.4650  12.8148
    13.0060  14.0892

          k = 0.0500 0.2500 0.3500 (  5300 PWs)   bands (ev):

   -46.8857 -23.2120 -23.1395 -23.1025  -7.1687  -6.6451  -6.5002  -5.8409
    -5.8236  -5.8045  -5.6962  -5.6395   2.6562   5.9501   6.3879   6.7386
     7.1973   7.5209   7.9384   8.2530   8.9349   9.2061  12.7796  12.8690
    13.2453  13.8411

          k = 0.0500 0.2500 0.4500 (  5308 PWs)   bands (ev):

   -46.8856 -23.2116 -23.1479 -23.1022  -7.1102  -6.6254  -6.4655  -5.8462
    -5.8305  -5.8059  -5.6902  -5.6368   2.5604   5.7413   6.4137   6.7622
     7.0908   7.5502   7.8567   8.2514   8.9281   9.1729  12.7895  13.0705
    13.4283  13.6696

          k = 0.0500 0.3500 0.3500 (  5303 PWs)   bands (ev):

   -46.8855 -23.2260 -23.1389 -23.1020  -7.0711  -6.6307  -6.4437  -5.8400
    -5.8266  -5.8052  -5.7210  -5.5850   2.5186   5.7581   6.1590   6.7308
     7.1358   7.3735   7.8216   8.2067   8.8387   9.3016  12.8251  13.1529
    13.4255  14.1348

          k = 0.0500 0.3500 0.4500 (  5309 PWs)   bands (ev):

   -46.8853 -23.2256 -23.1473 -23.1017  -7.0445  -6.6027  -6.3976  -5.8408
    -5.8292  -5.8086  -5.7287  -5.5537   2.4443   5.6512   6.0318   6.8114
     6.9528   7.5545   7.7467   8.0754   8.6204   9.3790  13.0440  13.1485
    13.5780  14.1884

          k = 0.0500 0.4500 0.4500 (  5304 PWs)   bands (ev):

   -46.8851 -23.2341 -23.1469 -23.1014  -7.0261  -6.5585  -6.3504  -5.8435
    -5.8286  -5.8067  -5.7556  -5.5066   2.3729   5.4675   5.9328   6.7888
     6.9549   7.5031   7.7905   8.0073   8.2989   9.5452  13.0285  13.3650
    13.6811  14.5024

          k = 0.1500 0.1500 0.1500 (  5296 PWs)   bands (ev):

   -46.8864 -23.1987 -23.1126 -23.1124  -7.4534  -6.7134  -6.5941  -5.8230
    -5.8130  -5.7971  -5.6742  -5.6544   3.1447   6.2855   6.3303   6.8279
     7.6032   7.7469   8.2977   8.7053   8.8232   8.8317  12.2614  12.4889
    12.5267  14.5235

          k = 0.1500 0.1500 0.2500 (  5300 PWs)   bands (ev):

   -46.8861 -23.1982 -23.1262 -23.1120  -7.3457  -6.6730  -6.5623  -5.8342
    -5.8144  -5.7932  -5.6892  -5.6482   2.9491   6.2232   6.3382   6.7114
     7.3948   7.5477   8.3269   8.6030   8.7864   9.0031  12.4532  12.6143
    12.7481  14.2554

          k = 0.1500 0.1500 0.3500 (  5296 PWs)   bands (ev):

   -46.8858 -23.1977 -23.1398 -23.1115  -7.2395  -6.6281  -6.5287  -5.8448
    -5.8082  -5.7867  -5.7102  -5.6477   2.7693   5.9913   6.3618   6.6407
     7.1834   7.5868   8.1213   8.6306   8.7947   9.1685  12.4031  12.9150
    13.0622  13.7757

          k = 0.1500 0.1500 0.4500 (  5293 PWs)   bands (ev):

   -46.8857 -23.1973 -23.1482 -23.1112  -7.1754  -6.5978  -6.5061  -5.8491
    -5.8035  -5.7794  -5.7241  -5.6534   2.6666   5.7548   6.3780   6.6912
     7.0731   7.6975   7.8914   8.7080   8.7735   9.2446  12.3427  13.1160
    13.2826  13.5445

          k = 0.1500 0.2500 0.2500 (  5298 PWs)   bands (ev):

   -46.8858 -23.2123 -23.1256 -23.1115  -7.2100  -6.6703  -6.5469  -5.8363
    -5.8230  -5.7797  -5.6683  -5.6420   2.8190   6.0842   6.2142   6.5469
     7.1299   7.3643   8.2512   8.6548   8.8886   9.0861  12.4992  12.7984
    12.9650  14.0746

          k = 0.1500 0.2500 0.3500 (  5304 PWs)   bands (ev):

   -46.8856 -23.2117 -23.1392 -23.1109  -7.1162  -6.6536  -6.5109  -5.8387
    -5.8134  -5.7699  -5.6698  -5.6243   2.6992   5.9336   6.1894   6.3575
     6.8370   7.4015   8.2855   8.4867   8.9188   9.1039  12.6299  12.8985
    13.1914  14.0298

          k = 0.1500 0.2500 0.4500 (  5290 PWs)   bands (ev):

   -46.8854 -23.2113 -23.1476 -23.1106  -7.0631  -6.6472  -6.4775  -5.8377
    -5.8046  -5.7667  -5.6633  -5.6231   2.6259   5.7403   6.1741   6.3079
     6.7326   7.4962   8.1199   8.5638   8.8160   9.1094  12.6410  13.0642
    13.3755  14.0576

          k = 0.1500 0.3500 0.3500 (  5305 PWs)   bands (ev):

   -46.8853 -23.2256 -23.1386 -23.1104  -7.0073  -6.6571  -6.4900  -5.8364
    -5.8073  -5.7492  -5.6772  -5.5694   2.6174   5.7369   6.0887   6.1474
     6.5866   7.3660   8.1235   8.5064   8.7569   9.2717  12.7494  13.0680
    13.3495  14.3179

          k = 0.1500 0.3500 0.4500 (  5304 PWs)   bands (ev):

   -46.8851 -23.2252 -23.1469 -23.1101  -6.9805  -6.6506  -6.4491  -5.8327
    -5.7905  -5.7530  -5.6769  -5.5384   2.5720   5.6402   5.9727   6.1632
     6.3846   7.4354   8.0314   8.4288   8.5766   9.3715  12.9703  13.0618
    13.4904  14.5281

          k = 0.1500 0.4500 0.4500 (  5310 PWs)   bands (ev):

   -46.8850 -23.2338 -23.1465 -23.1098  -6.9564  -6.6191  -6.4322  -5.8307
    -5.7739  -5.7385  -5.6963  -5.4902   2.5326   5.4538   5.8954   6.1407
     6.2859   7.4342   7.7595   8.3357   8.5516   9.5292  13.0155  13.2510
    13.5848  14.8539

          k = 0.2500 0.2500 0.2500 (  5286 PWs)   bands (ev):

   -46.8856 -23.2117 -23.1252 -23.1250  -7.1223  -6.6555  -6.5472  -5.8275
    -5.8229  -5.7500  -5.6456  -5.6172   2.7981   5.9409   6.0125   6.3915
     6.9007   6.9604   8.3794   8.8489   8.9086   9.0475  12.5104  12.9324
    12.9427  14.1021

          k = 0.2500 0.2500 0.3500 (  5300 PWs)   bands (ev):

   -46.8853 -23.2111 -23.1386 -23.1245  -7.0502  -6.6434  -6.5265  -5.8225
    -5.8092  -5.7154  -5.6280  -5.6000   2.7607   5.8181   5.8791   6.1085
     6.6283   6.9212   8.2148   8.8257   8.9339   9.1796  12.5839  12.9841
    13.1746  14.2894

          k = 0.2500 0.2500 0.4500 (  5307 PWs)   bands (ev):

   -46.8851 -23.2108 -23.1470 -23.1242  -7.0153  -6.6415  -6.4970  -5.8189
    -5.7988  -5.6830  -5.6219  -5.5962   2.7304   5.7151   5.7698   5.9604
     6.5532   6.9607   7.9903   8.8535   8.8927   9.2358  12.6830  13.0649
    13.3554  14.5250

          k = 0.2500 0.3500 0.3500 (  5315 PWs)   bands (ev):

   -46.8850 -23.2250 -23.1380 -23.1240  -6.9197  -6.6789  -6.5513  -5.8170
    -5.7930  -5.6777  -5.6025  -5.5401   2.7890   5.5842   5.7209   5.8944
     6.3411   6.8133   7.7703   8.9010   9.0943   9.2709  12.7239  13.1139
    13.2998  14.6057

          k = 0.2500 0.3500 0.4500 (  5297 PWs)   bands (ev):

   -46.8849 -23.2247 -23.1464 -23.1236  -6.8959  -6.6939  -6.5176  -5.8112
    -5.7793  -5.6533  -5.5885  -5.5097   2.8079   5.5623   5.6164   5.7223
     6.1590   6.8390   7.4252   8.9220   9.0848   9.3767  12.9499  13.0993
    13.4348  14.9326

          k = 0.2500 0.4500 0.4500 (  5300 PWs)   bands (ev):

   -46.8847 -23.2332 -23.1460 -23.1233  -6.8455  -6.6971  -6.5303  -5.8078
    -5.7643  -5.6337  -5.5696  -5.4593   2.8454   5.3763   5.5712   5.6710
     5.9906   6.8096   6.9857   8.9182   9.1300   9.5136  13.0725  13.2290
    13.5211  15.2577

          k = 0.3500 0.3500 0.3500 (  5310 PWs)   bands (ev):

   -46.8848 -23.2245 -23.1375 -23.1374  -6.8759  -6.6637  -6.5902  -5.7969
    -5.7833  -5.6091  -5.5363  -5.5045   2.9752   5.3460   5.4479   5.7337
     6.2771   6.3571   7.1688   9.1637   9.2627   9.4004  12.8795  13.2742
    13.2755  14.9588

          k = 0.3500 0.3500 0.4500 (  5315 PWs)   bands (ev):

   -46.8846 -23.2241 -23.1458 -23.1371  -6.8742  -6.6633  -6.5749  -5.7880
    -5.7745  -5.5623  -5.5069  -5.4766   3.0958   5.2555   5.3058   5.5818
     6.1266   6.3291   6.7074   9.2203   9.3312   9.5102  13.0926  13.2329
    13.4222  15.3242

          k = 0.3500 0.4500 0.4500 (  5321 PWs)   bands (ev):

   -46.8844 -23.2327 -23.1454 -23.1368  -6.7815  -6.7157  -6.6073  -5.7853
    -5.7609  -5.5368  -5.4614  -5.4221   3.2853   5.0965   5.2484   5.4284
     5.9455   6.1242   6.3033   9.3106   9.4883   9.5137  13.2343  13.3403
    13.4909  15.6740

          k = 0.4500 0.4500 0.4500 (  5337 PWs)   bands (ev):

   -46.8843 -23.2323 -23.1451 -23.1451  -6.8103  -6.6584  -6.6456  -5.7728
    -5.7578  -5.4800  -5.4013  -5.3950   3.7307   4.9291   5.0083   5.3376
     5.4229   5.9370   6.0674   9.4858   9.4992   9.6635  13.3963  13.4661
    13.4703  16.0136

          k =-0.0500 0.1500 0.0500 (  5304 PWs)   bands (ev):

   -46.8867 -23.1994 -23.1044 -23.1043  -7.5905  -6.7665  -6.6324  -5.8098
    -5.8004  -5.7982  -5.6649  -5.6518   3.4555   6.3368   6.3444   6.5920
     7.9889   8.0125   8.4759   8.5793   8.9022   8.9314  11.7595  12.4434
    12.4618  13.7707

          k =-0.0500 0.2500 0.0500 (  5285 PWs)   bands (ev):

   -46.8864 -23.2136 -23.1038 -23.1038  -7.4398  -6.7424  -6.5737  -5.8141
    -5.8092  -5.8060  -5.7236  -5.6504   3.1243   6.2704   6.4304   6.5576
     7.7428   7.7680   8.5293   8.5747   8.9789   9.0213  11.7626  12.7965
    12.8232  13.7755

          k =-0.0500 0.3500 0.0500 (  5290 PWs)   bands (ev):

   -46.8861 -23.2276 -23.1033 -23.1033  -7.2724  -6.7295  -6.5046  -5.8380
    -5.8129  -5.8083  -5.7823  -5.6515   2.8534   5.9026   6.5290   6.6422
     7.5175   7.5274   8.4688   8.8144   9.0305   9.3352  11.7647  13.1347
    13.1683  13.4895

          k =-0.0500 0.4500 0.0500 (  5310 PWs)   bands (ev):

   -46.8860 -23.2363 -23.1030 -23.1030  -7.1540  -6.7335  -6.4536  -5.8732
    -5.8163  -5.8079  -5.8066  -5.6537   2.7079   5.6212   6.6019   6.7488
     7.3550   7.3775   8.4295   8.9122   9.0644   9.7355  11.7634  12.7907
    13.3367  13.3790

          k = 0.1500 0.0500 0.1500 (  5296 PWs)   bands (ev):

   -46.8865 -23.1900 -23.1130 -23.1128  -7.5381  -6.7257  -6.6125  -5.8222
    -5.7997  -5.7977  -5.6839  -5.6462   3.2809   6.3016   6.4805   6.7177
     7.7878   7.9381   8.3372   8.6263   8.7953   8.8694  12.2388  12.3063
    12.3315  14.3015

          k =-0.0500 0.2500 0.1500 (  5301 PWs)   bands (ev):

   -46.8863 -23.2132 -23.1123 -23.1035  -7.3742  -6.7159  -6.5661  -5.8245
    -5.8153  -5.8039  -5.6937  -5.6642   3.0048   6.1899   6.4561   6.6792
     7.5001   7.7544   8.2402   8.6712   8.7717   9.1346  12.0521  12.7994
    12.8456  14.0811

          k = 0.2500 0.0500 0.1500 (  5301 PWs)   bands (ev):

   -46.8863 -23.1895 -23.1266 -23.1123  -7.4277  -6.6765  -6.5695  -5.8302
    -5.8071  -5.7977  -5.7126  -5.6499   3.0255   6.2780   6.5183   6.7147
     7.5913   7.6941   8.2823   8.5868   8.7869   8.9790  12.2832  12.5716
    12.6573  14.3167

          k =-0.0500 0.3500 0.1500 (  5301 PWs)   bands (ev):

   -46.8860 -23.2272 -23.1118 -23.1030  -7.2155  -6.7033  -6.5122  -5.8463
    -5.8148  -5.8082  -5.7250  -5.6646   2.7722   5.8706   6.4750   6.7174
     7.3000   7.5509   8.3226   8.6601   8.8355   9.3854  12.0450  13.1253
    13.1737  13.6632

          k = 0.3500 0.0500 0.1500 (  5301 PWs)   bands (ev):

   -46.8860 -23.1890 -23.1402 -23.1118  -7.3175  -6.6133  -6.5305  -5.8426
    -5.8109  -5.7973  -5.7503  -5.6503   2.8057   6.0063   6.5681   6.8409
     7.3361   7.6820   8.0147   8.6381   8.7944   9.2381  12.2635  12.9254
    13.0032  13.6261

          k =-0.0500 0.4500 0.1500 (  5306 PWs)   bands (ev):

   -46.8858 -23.2359 -23.1114 -23.1027  -7.1071  -6.7029  -6.4746  -5.8670
    -5.8143  -5.8125  -5.7357  -5.6700   2.6433   5.6023   6.4938   6.8180
     7.1762   7.4018   8.4244   8.6382   8.8759   9.5787  12.0325  13.1603
    13.3485  13.3964

          k = 0.4500 0.0500 0.1500 (  5306 PWs)   bands (ev):

   -46.8858 -23.1886 -23.1486 -23.1115  -7.2503  -6.5551  -6.5185  -5.8565
    -5.8131  -5.7971  -5.7691  -5.6532   2.6849   5.7549   6.6960   6.9152
     7.2647   7.5094   7.9268   8.6331   8.8263   9.4670  12.2214  13.1418
    13.1680  13.2380

          k = 0.2500 0.0500 0.2500 (  5314 PWs)   bands (ev):

   -46.8860 -23.1890 -23.1261 -23.1258  -7.3405  -6.6353  -6.5208  -5.8290
    -5.8092  -5.8014  -5.6895  -5.6768   2.8456   6.2477   6.4195   6.7405
     7.2936   7.4062   8.3738   8.3760   8.9974   9.0069  12.4997  12.6254
    12.9004  14.2139

          k =-0.0500 0.3500 0.2500 (  5300 PWs)   bands (ev):

   -46.8857 -23.2266 -23.1254 -23.1025  -7.1338  -6.6666  -6.4955  -5.8417
    -5.8233  -5.8057  -5.7005  -5.6419   2.6433   5.8239   6.4193   6.6524
     7.2138   7.4813   7.8962   8.4969   8.8884   9.3081  12.4528  13.1535
    13.2521  13.9265

          k = 0.3500 0.0500 0.2500 (  5300 PWs)   bands (ev):

   -46.8857 -23.1884 -23.1396 -23.1254  -7.2636  -6.5708  -6.4749  -5.8335
    -5.8104  -5.8018  -5.7017  -5.6729   2.6781   6.0114   6.3589   6.7535
     7.1259   7.3869   8.0363   8.4891   8.9539   9.2145  12.5216  12.9315
    13.1580  13.9115

          k =-0.0500 0.4500 0.2500 (  5308 PWs)   bands (ev):

   -46.8856 -23.2352 -23.1250 -23.1022  -7.0523  -6.6522  -6.4648  -5.8542
    -5.8229  -5.8105  -5.7027  -5.6347   2.5388   5.5668   6.4196   6.6363
     7.1677   7.4157   7.9088   8.5437   8.8435   9.3513  12.4422  13.3588
    13.3984  13.8230

          k = 0.4500 0.0500 0.2500 (  5308 PWs)   bands (ev):

   -46.8856 -23.1881 -23.1480 -23.1251  -7.2227  -6.5063  -6.4580  -5.8420
    -5.8107  -5.8060  -5.6962  -5.6784   2.5812   5.7563   6.4488   6.6331
     7.1641   7.5074   7.7252   8.5785   8.8723   9.3289  12.5004  13.1686
    13.3327  13.7188

          k = 0.3500 0.0500 0.3500 (  5303 PWs)   bands (ev):

   -46.8855 -23.1879 -23.1391 -23.1389  -7.2284  -6.4958  -6.4174  -5.8287
    -5.8149  -5.7987  -5.7206  -5.6369   2.5520   5.9217   6.1280   6.7128
     6.8785   7.4008   8.0821   8.2213   8.8430   9.3863  12.8323  12.9673
    13.3350  14.1470

          k =-0.0500 0.4500 0.3500 (  5309 PWs)   bands (ev):

   -46.8853 -23.2346 -23.1385 -23.1017  -7.0279  -6.5969  -6.4062  -5.8454
    -5.8276  -5.8079  -5.7352  -5.5522   2.4356   5.5198   6.1298   6.6728
     7.1431   7.3740   7.7421   8.2343   8.6170   9.4208  12.8163  13.3661
    13.5528  14.3254

          k = 0.4500 0.0500 0.3500 (  5309 PWs)   bands (ev):

   -46.8853 -23.1876 -23.1473 -23.1386  -7.2154  -6.4241  -6.3893  -5.8315
    -5.8128  -5.8053  -5.7333  -5.6106   2.4756   5.7044   6.1334   6.5980
     6.8491   7.5594   7.8403   8.2589   8.6566   9.5230  12.8814  13.1631
    13.4614  14.2299

          k = 0.4500 0.0500 0.4500 (  5304 PWs)   bands (ev):

   -46.8851 -23.1872 -23.1470 -23.1469  -7.2185  -6.3563  -6.3445  -5.8304
    -5.8095  -5.8041  -5.7643  -5.5695   2.4099   5.5832   6.0287   6.6279
     6.6473   7.7030   7.9201   8.0031   8.4112   9.6869  13.1421  13.1674
    13.5457  14.4316

          k =-0.1500 0.2500 0.1500 (  5300 PWs)   bands (ev):

   -46.8861 -23.2128 -23.1121 -23.1119  -7.3103  -6.6966  -6.5629  -5.8326
    -5.8220  -5.7913  -5.6709  -5.6650   2.9360   6.1862   6.2473   6.7218
     7.4019   7.5671   8.1513   8.7560   8.8854   9.0133  12.2346  12.7940
    12.8507  14.2789

          k =-0.1500 0.3500 0.1500 (  5296 PWs)   bands (ev):

   -46.8858 -23.2269 -23.1115 -23.1114  -7.1567  -6.6860  -6.5300  -5.8499
    -5.8192  -5.7775  -5.6914  -5.6652   2.7427   5.8719   6.1933   6.6702
     7.2686   7.5458   8.0062   8.7688   8.9315   9.2418  12.1774  13.1102
    13.1482  13.8211

          k =-0.1500 0.4500 0.1500 (  5293 PWs)   bands (ev):

   -46.8857 -23.2355 -23.1111 -23.1111  -7.0534  -6.6852  -6.5087  -5.8593
    -5.8173  -5.7614  -5.7063  -5.6731   2.6312   5.6041   6.1523   6.7224
     7.2099   7.5169   7.9709   8.7648   8.9597   9.3473  12.1260  13.3119
    13.3360  13.6133

          k = 0.2500 0.1500 0.2500 (  5298 PWs)   bands (ev):

   -46.8858 -23.1977 -23.1258 -23.1255  -7.2583  -6.6431  -6.5308  -5.8319
    -5.8197  -5.7786  -5.6712  -5.6506   2.8335   6.1426   6.2461   6.5434
     7.0664   7.3361   8.4115   8.6538   8.8683   9.0141  12.5529  12.7260
    12.8776  14.0875

          k =-0.1500 0.3500 0.2500 (  5304 PWs)   bands (ev):

   -46.8856 -23.2262 -23.1250 -23.1109  -7.0719  -6.6666  -6.5299  -5.8426
    -5.8196  -5.7584  -5.6723  -5.6263   2.6850   5.8226   6.0850   6.3984
     7.0028   7.3677   8.0380   8.7494   8.9243   9.1430  12.4401  13.0895
    13.1979  14.0610

          k = 0.3500 0.1500 0.2500 (  5304 PWs)   bands (ev):

   -46.8856 -23.1971 -23.1392 -23.1251  -7.1826  -6.5990  -6.4979  -5.8334
    -5.8131  -5.7580  -5.6687  -5.6508   2.7139   5.9791   6.1601   6.3482
     6.8800   7.3175   8.2906   8.6436   8.8341   9.1695  12.5323  12.9358
    13.1285  14.0410

          k =-0.1500 0.4500 0.2500 (  5290 PWs)   bands (ev):

   -46.8854 -23.2349 -23.1247 -23.1106  -6.9877  -6.6591  -6.5205  -5.8456
    -5.8157  -5.7369  -5.6837  -5.6186   2.6023   5.5746   5.9897   6.3988
     6.9835   7.4439   7.8677   8.7929   8.8746   9.1651  12.4189  13.2960
    13.3689  14.1374

          k = 0.4500 0.1500 0.2500 (  5290 PWs)   bands (ev):

   -46.8854 -23.1968 -23.1476 -23.1247  -7.1434  -6.5642  -6.4754  -5.8333
    -5.8070  -5.7388  -5.6697  -5.6577   2.6402   5.7523   6.1179   6.3153
     6.8371   7.3703   8.1283   8.6863   8.7489   9.2388  12.5146  13.1188
    13.3195  14.0711

          k = 0.3500 0.1500 0.3500 (  5305 PWs)   bands (ev):

   -46.8853 -23.1966 -23.1387 -23.1385  -7.1479  -6.5411  -6.4667  -5.8250
    -5.8072  -5.7345  -5.6647  -5.6210   2.6467   5.9025   5.9969   6.1615
     6.5398   7.2861   8.2708   8.5475   8.6614   9.3892  12.7471  12.9824
    13.2780  14.3085

          k =-0.1500 0.4500 0.3500 (  5304 PWs)   bands (ev):

   -46.8851 -23.2342 -23.1382 -23.1101  -6.9579  -6.6348  -6.4791  -5.8357
    -5.7996  -5.7245  -5.6976  -5.5361   2.5622   5.5097   6.0279   6.0761
     6.5643   7.3904   7.9215   8.4663   8.6772   9.3830  12.7760  13.2667
    13.4785  14.5986

          k = 0.4500 0.1500 0.3500 (  5304 PWs)   bands (ev):

   -46.8851 -23.1962 -23.1470 -23.1383  -7.1368  -6.4941  -6.4455  -5.8219
    -5.7969  -5.7177  -5.6753  -5.5963   2.6004   5.6954   6.0064   6.0676
     6.4295   7.3176   8.0995   8.4880   8.5944   9.5154  12.8419  13.1103
    13.4129  14.5405

          k = 0.4500 0.1500 0.4500 (  5310 PWs)   bands (ev):

   -46.8850 -23.1959 -23.1466 -23.1466  -7.1419  -6.4379  -6.4272  -5.8176
    -5.7799  -5.7030  -5.6917  -5.5557   2.5693   5.5721   5.9739   6.0660
     6.1570   7.3351   7.8698   8.4814   8.4871   9.6823  13.0837  13.1251
    13.4990  14.8366

          k =-0.2500 0.3500 0.2500 (  5300 PWs)   bands (ev):

   -46.8853 -23.2256 -23.1246 -23.1244  -6.9835  -6.6664  -6.5636  -5.8292
    -5.8100  -5.7137  -5.6303  -5.5898   2.7441   5.7308   5.8203   6.1274
     6.8302   6.8410   8.1097   8.8808   9.0242   9.1109  12.5122  13.0872
    13.1889  14.2985

          k =-0.2500 0.4500 0.2500 (  5307 PWs)   bands (ev):

   -46.8851 -23.2342 -23.1242 -23.1241  -6.8980  -6.6707  -6.5737  -5.8283
    -5.8018  -5.6750  -5.6365  -5.5749   2.7026   5.5866   5.6049   6.0907
     6.8073   6.8634   7.8764   8.8421   9.0527   9.1598  12.5608  13.2348
    13.3710  14.5690

          k = 0.3500 0.2500 0.3500 (  5315 PWs)   bands (ev):

   -46.8850 -23.2106 -23.1381 -23.1380  -7.0148  -6.6048  -6.5336  -5.8052
    -5.8011  -5.6620  -5.5855  -5.5806   2.8078   5.6677   5.6708   5.8973
     6.3909   6.7129   7.8039   8.9389   8.9867   9.3944  12.7270  13.0844
    13.2624  14.5997

          k =-0.2500 0.4500 0.3500 (  5297 PWs)   bands (ev):

   -46.8849 -23.2336 -23.1377 -23.1236  -6.8489  -6.6862  -6.5671  -5.8143
    -5.7809  -5.6479  -5.5939  -5.5045   2.7952   5.4157   5.5976   5.7992
     6.2805   6.7966   7.4138   8.8951   9.1323   9.3631  12.8390  13.2321
    13.4343  14.9506

          k = 0.4500 0.2500 0.3500 (  5297 PWs)   bands (ev):

   -46.8849 -23.2102 -23.1464 -23.1377  -7.0074  -6.5859  -6.5163  -5.8010
    -5.7885  -5.6166  -5.5819  -5.5588   2.8278   5.5427   5.6449   5.6908
     6.2740   6.7095   7.4622   8.9708   8.9907   9.5110  12.9063  13.1178
    13.3974  14.9287

          k = 0.4500 0.2500 0.4500 (  5300 PWs)   bands (ev):

   -46.8847 -23.2099 -23.1460 -23.1460  -7.0166  -6.5362  -6.5261  -5.7948
    -5.7758  -5.5768  -5.5648  -5.5279   2.8805   5.4943   5.5296   5.5721
     6.0670   6.6812   7.0589   9.0038   9.0086   9.6751  13.1118  13.1678
    13.4671  15.2403

          k =-0.3500 0.4500 0.3500 (  5315 PWs)   bands (ev):

   -46.8846 -23.2330 -23.1372 -23.1371  -6.7746  -6.7120  -6.6216  -5.7946
    -5.7696  -5.5791  -5.5036  -5.4605   3.0768   5.1665   5.4363   5.5175
     6.1358   6.3496   6.7023   9.2444   9.3807   9.4053  13.0367  13.3073
    13.4324  15.3268

          k = 0.4500 0.3500 0.4500 (  5321 PWs)   bands (ev):

   -46.8844 -23.2237 -23.1455 -23.1454  -6.8899  -6.6147  -6.6039  -5.7738
    -5.7720  -5.5050  -5.4602  -5.4563   3.3123   5.1354   5.1374   5.4655
     6.0657   6.1388   6.1897   9.3394   9.3488   9.6679  13.2635  13.3233
    13.4539  15.6690

     the Fermi energy is     9.7251 ev

!    total energy              =    -364.95205421 Ry
     Harris-Foulkes estimate   =    -364.95205421 Ry
     estimated scf accuracy    <          1.3E-09 Ry

     The total energy is the sum of the following terms:

     one-electron contribution =     -89.35645552 Ry
     hartree contribution      =      72.93802963 Ry
     xc contribution           =     -85.69327539 Ry
     ewald contribution        =    -262.84689449 Ry
     smearing contrib. (-TS)   =       0.00654155 Ry

     convergence has been achieved in  13 iterations

     Forces acting on atoms (cartesian axes, Ry/au):

     atom    1 type  1   force =     0.00000000    0.01666259    0.00000000
     atom    2 type  2   force =     0.00000000   -0.02304514    0.00000000
     atom    3 type  3   force =     0.00000000    0.00623176    0.00000000
     atom    4 type  3   force =     0.00000000   -0.00608097    0.00000000
     atom    5 type  3   force =     0.00000000    0.00623176    0.00000000

     Total force =     0.025411     Total SCF correction =     0.000011


     Computing stress (Cartesian axis) and pressure

          total   stress  (Ry/bohr**3)                   (kbar)     P=  -49.88
  -0.00042278   0.00000000   0.00000000        -62.19      0.00      0.00
   0.00000000  -0.00017163   0.00000000          0.00    -25.25      0.00
   0.00000000   0.00000000  -0.00042278          0.00      0.00    -62.19


     BFGS Geometry Optimization

     number of scf cycles    =   1
     number of bfgs steps    =   0

     energy   new            =    -364.9520542104 Ry

     new trust radius        =       0.0230451360 bohr
     new conv_thr            =       0.0000000100 Ry


ATOMIC_POSITIONS (crystal)
Pb       0.000000000   0.000000000   0.000000000    0   0   0
Ti       0.500000000   0.544967745   0.500000000
O        0.500000000   0.500819968   0.000000000
O        0.500000000  -0.000800128   0.500000000
O        0.000000000   0.500819968   0.500000000



     Writing output data file PbTiO3.save/
     NEW-OLD atomic charge density approx. for the potential

     Check: negative core charge=   -0.000006

     total cpu time spent up to now is      537.3 secs

     Self-consistent Calculation

     iteration #  1     ecut=    80.00 Ry     beta= 0.70
     Davidson diagonalization with overlap
     ethr =  1.00E-06,  avg # of iterations =  4.1

     total cpu time spent up to now is      599.2 secs

     total energy              =    -364.95261253 Ry
     Harris-Foulkes estimate   =    -364.95264142 Ry
     estimated scf accuracy    <       0.00005219 Ry

     iteration #  2     ecut=    80.00 Ry     beta= 0.70
     Davidson diagonalization with overlap
     ethr =  1.19E-07,  avg # of iterations =  3.8

     total cpu time spent up to now is      641.3 secs

     total energy              =    -364.95260065 Ry
     Harris-Foulkes estimate   =    -364.95265362 Ry
     estimated scf accuracy    <       0.00013298 Ry

     iteration #  3     ecut=    80.00 Ry     beta= 0.70
     Davidson diagonalization with overlap
     ethr =  1.19E-07,  avg # of iterations =  3.8

     total cpu time spent up to now is      679.9 secs

     total energy              =    -364.95262804 Ry
     Harris-Foulkes estimate   =    -364.95263304 Ry
     estimated scf accuracy    <       0.00001559 Ry

     iteration #  4     ecut=    80.00 Ry     beta= 0.70
     Davidson diagonalization with overlap
     ethr =  3.54E-08,  avg # of iterations =  2.8

     total cpu time spent up to now is      713.6 secs

     total energy              =    -364.95263042 Ry
     Harris-Foulkes estimate   =    -364.95263070 Ry
     estimated scf accuracy    <       0.00000059 Ry

     iteration #  5     ecut=    80.00 Ry     beta= 0.70
     Davidson diagonalization with overlap
     ethr =  1.35E-09,  avg # of iterations =  3.3

     total cpu time spent up to now is      753.7 secs

     total energy              =    -364.95263064 Ry
     Harris-Foulkes estimate   =    -364.95263065 Ry
     estimated scf accuracy    <       0.00000003 Ry

     iteration #  6     ecut=    80.00 Ry     beta= 0.70
     Davidson diagonalization with overlap
     ethr =  6.35E-11,  avg # of iterations =  3.7

     total cpu time spent up to now is      796.1 secs

     total energy              =    -364.95263064 Ry
     Harris-Foulkes estimate   =    -364.95263065 Ry
     estimated scf accuracy    <       0.00000004 Ry

     iteration #  7     ecut=    80.00 Ry     beta= 0.70
     Davidson diagonalization with overlap
     ethr =  6.35E-11,  avg # of iterations =  3.1

     total cpu time spent up to now is      830.7 secs

     End of self-consistent calculation

          k = 0.0500 0.0500 0.0500 (  5326 PWs)   bands (ev):

   -46.9040 -23.1987 -23.1216 -23.1215  -7.6765  -6.7820  -6.6725  -5.8057
    -5.7902  -5.7899  -5.6508  -5.6304   3.7126   6.2966   6.3348   6.4480
     8.2087   8.2337   8.5985   8.6349   8.8758   8.9018  11.7456  12.1543
    12.1615  13.7448

          k = 0.0500 0.0500 0.1500 (  5304 PWs)   bands (ev):

   -46.9038 -23.1984 -23.1301 -23.1212  -7.6035  -6.7501  -6.6467  -5.8119
    -5.7965  -5.7896  -5.6783  -5.6318   3.4665   6.3458   6.4123   6.5914
     7.9947   8.1796   8.5004   8.5950   8.7506   8.8662  12.0421  12.1636
    12.2601  13.9300

          k = 0.0500 0.0500 0.2500 (  5285 PWs)   bands (ev):

   -46.9035 -23.1979 -23.1438 -23.1208  -7.4817  -6.6933  -6.6058  -5.8223
    -5.8068  -5.7889  -5.7315  -5.6304   3.1473   6.3236   6.5260   6.6397
     7.8576   7.9731   8.4140   8.5224   8.6790   8.9215  12.1640  12.4752
    12.5736  13.9383

          k = 0.0500 0.0500 0.3500 (  5290 PWs)   bands (ev):

   -46.9033 -23.1973 -23.1575 -23.1203  -7.3546  -6.6267  -6.5677  -5.8371
    -5.8186  -5.7883  -5.7858  -5.6306   2.8898   5.9913   6.7093   6.8141
     7.5976   7.7092   8.3742   8.4481   8.7800   9.2322  12.1652  12.8657
    12.9461  13.4191

          k = 0.0500 0.0500 0.4500 (  5310 PWs)   bands (ev):

   -46.9031 -23.1970 -23.1660 -23.1200  -7.2729  -6.5732  -6.5515  -5.8609
    -5.8279  -5.8078  -5.7878  -5.6319   2.7533   5.7315   6.9131   7.0663
     7.3184   7.3946   8.3651   8.4305   8.8345   9.6191  12.1527  12.7458
    13.0961  13.2015

          k = 0.0500 0.1500 0.1500 (  5296 PWs)   bands (ev):

   -46.9036 -23.2071 -23.1297 -23.1209  -7.5187  -6.7337  -6.6206  -5.8120
    -5.8050  -5.7951  -5.6711  -5.6533   3.2783   6.3023   6.4103   6.7317
     7.7688   8.0004   8.3516   8.6519   8.7080   8.9537  12.0433  12.4006
    12.4742  14.0345

          k = 0.0500 0.1500 0.2500 (  5301 PWs)   bands (ev):

   -46.9034 -23.2066 -23.1435 -23.1204  -7.4013  -6.6836  -6.5881  -5.8252
    -5.8127  -5.7947  -5.7022  -5.6461   3.0216   6.2502   6.5244   6.6949
     7.6019   7.8358   8.2389   8.4676   8.6974   9.0839  12.3892  12.4848
    12.7334  14.0969

          k = 0.0500 0.1500 0.3500 (  5301 PWs)   bands (ev):

   -46.9031 -23.2060 -23.1571 -23.1199  -7.2808  -6.6307  -6.5531  -5.8412
    -5.8203  -5.7944  -5.7283  -5.6455   2.8020   5.9808   6.6290   6.7828
     7.3656   7.6826   8.1669   8.4704   8.6783   9.2826  12.3942  12.8611
    13.0583  13.5747

          k = 0.0500 0.1500 0.4500 (  5306 PWs)   bands (ev):

   -46.9030 -23.2057 -23.1656 -23.1196  -7.2048  -6.5967  -6.5295  -5.8545
    -5.8276  -5.7942  -5.7365  -5.6501   2.6818   5.7345   6.7632   6.9275
     7.1901   7.4372   8.2018   8.5394   8.6488   9.4400  12.3775  13.0833
    13.1238  13.2882

          k = 0.0500 0.2500 0.2500 (  5314 PWs)   bands (ev):

   -46.9031 -23.2206 -23.1429 -23.1199  -7.2693  -6.6731  -6.5487  -5.8284
    -5.8169  -5.8002  -5.6832  -5.6577   2.8290   6.1282   6.4966   6.6440
     7.3886   7.5646   8.0298   8.4417   8.8605   9.2072  12.4585  12.7695
    12.9901  14.0852

          k = 0.0500 0.2500 0.3500 (  5300 PWs)   bands (ev):

   -46.9028 -23.2200 -23.1565 -23.1194  -7.1682  -6.6407  -6.5051  -5.8372
    -5.8194  -5.8016  -5.6936  -5.6385   2.6615   5.9477   6.3812   6.7426
     7.2001   7.5210   7.9406   8.2644   8.9486   9.2026  12.7419  12.8592
    13.2360  13.8461

          k = 0.0500 0.2500 0.4500 (  5308 PWs)   bands (ev):

   -46.9027 -23.2196 -23.1649 -23.1191  -7.1099  -6.6202  -6.4697  -5.8428
    -5.8260  -5.8030  -5.6877  -5.6357   2.5654   5.7290   6.4101   6.7566
     7.1076   7.5425   7.8547   8.2697   8.9367   9.1773  12.7443  13.0715
    13.4201  13.6776

          k = 0.0500 0.3500 0.3500 (  5303 PWs)   bands (ev):

   -46.9026 -23.2339 -23.1559 -23.1189  -7.0752  -6.6212  -6.4489  -5.8361
    -5.8223  -5.8022  -5.7181  -5.5844   2.5240   5.7688   6.1401   6.7438
     7.1355   7.3744   7.8261   8.1997   8.8463   9.3027  12.8249  13.1139
    13.4209  14.1303

          k = 0.0500 0.3500 0.4500 (  5309 PWs)   bands (ev):

   -46.9024 -23.2335 -23.1643 -23.1186  -7.0492  -6.5918  -6.4022  -5.8371
    -5.8246  -5.8058  -5.7260  -5.5532   2.4489   5.6513   6.0183   6.8094
     6.9692   7.5531   7.7433   8.0755   8.6253   9.3858  13.0471  13.1102
    13.5741  14.1929

          k = 0.0500 0.4500 0.4500 (  5304 PWs)   bands (ev):

   -46.9023 -23.2421 -23.1639 -23.1182  -7.0331  -6.5449  -6.3554  -5.8397
    -5.8239  -5.8040  -5.7527  -5.5065   2.3772   5.4752   5.9126   6.8054
     6.9482   7.5188   7.7816   7.9947   8.3041   9.5516  13.0352  13.3287
    13.6812  14.4952

          k = 0.1500 0.1500 0.1500 (  5296 PWs)   bands (ev):

   -46.9035 -23.2068 -23.1295 -23.1293  -7.4511  -6.7109  -6.6012  -5.8188
    -5.8100  -5.7940  -5.6711  -5.6532   3.1498   6.2899   6.3292   6.8298
     7.6214   7.7525   8.3250   8.7129   8.8193   8.8203  12.2535  12.4578
    12.4893  14.5022

          k = 0.1500 0.1500 0.2500 (  5300 PWs)   bands (ev):

   -46.9032 -23.2062 -23.1431 -23.1289  -7.3418  -6.6716  -6.5688  -5.8306
    -5.8111  -5.7899  -5.6862  -5.6466   2.9538   6.2243   6.3387   6.7117
     7.4036   7.5470   8.3405   8.6071   8.7946   8.9963  12.4249  12.6049
    12.7284  14.2594

          k = 0.1500 0.1500 0.3500 (  5296 PWs)   bands (ev):

   -46.9030 -23.2057 -23.1568 -23.1284  -7.2339  -6.6283  -6.5341  -5.8415
    -5.8050  -5.7829  -5.7073  -5.6457   2.7739   5.9832   6.3607   6.6412
     7.1866   7.5901   8.1145   8.6499   8.8042   9.1651  12.3712  12.9144
    13.0476  13.7798

          k = 0.1500 0.1500 0.4500 (  5293 PWs)   bands (ev):

   -46.9028 -23.2053 -23.1652 -23.1281  -7.1688  -6.5995  -6.5103  -5.8460
    -5.8005  -5.7749  -5.7216  -5.6511   2.6712   5.7393   6.3746   6.6955
     7.0741   7.7034   7.8827   8.7236   8.7858   9.2437  12.3105  13.1181
    13.2685  13.5502

          k = 0.1500 0.2500 0.2500 (  5298 PWs)   bands (ev):

   -46.9030 -23.2203 -23.1426 -23.1284  -7.2084  -6.6667  -6.5533  -5.8327
    -5.8193  -5.7764  -5.6651  -5.6409   2.8245   6.0918   6.2206   6.5463
     7.1269   7.3560   8.2759   8.6448   8.8996   9.0771  12.4965  12.7688
    12.9472  14.0740

          k = 0.1500 0.2500 0.3500 (  5304 PWs)   bands (ev):

   -46.9027 -23.2197 -23.1562 -23.1279  -7.1134  -6.6508  -6.5158  -5.8352
    -5.8100  -5.7658  -5.6670  -5.6233   2.7041   5.9331   6.1905   6.3539
     6.8414   7.3903   8.2851   8.4992   8.9274   9.1021  12.6093  12.8903
    13.1783  14.0304

          k = 0.1500 0.2500 0.4500 (  5290 PWs)   bands (ev):

   -46.9025 -23.2193 -23.1646 -23.1275  -7.0599  -6.6446  -6.4816  -5.8343
    -5.8016  -5.7616  -5.6611  -5.6220   2.6305   5.7286   6.1698   6.3096
     6.7436   7.4842   8.1104   8.5822   8.8228   9.1141  12.6104  13.0669
    13.3632  14.0647

          k = 0.1500 0.3500 0.3500 (  5305 PWs)   bands (ev):

   -46.9024 -23.2336 -23.1556 -23.1273  -7.0095  -6.6490  -6.4948  -5.8326
    -5.8036  -5.7454  -5.6745  -5.5689   2.6227   5.7484   6.0785   6.1511
     6.5797   7.3544   8.1362   8.5048   8.7560   9.2784  12.7480  13.0412
    13.3397  14.3154

          k = 0.1500 0.3500 0.4500 (  5304 PWs)   bands (ev):

   -46.9023 -23.2332 -23.1639 -23.1270  -6.9832  -6.6415  -6.4531  -5.8290
    -5.7874  -5.7479  -5.6748  -5.5380   2.5765   5.6415   5.9637   6.1587
     6.3923   7.4198   8.0319   8.4425   8.5740   9.3800  12.9530  13.0523
    13.4818  14.5341

          k = 0.1500 0.4500 0.4500 (  5310 PWs)   bands (ev):

   -46.9021 -23.2418 -23.1635 -23.1267  -6.9624  -6.6064  -6.4363  -5.8268
    -5.7704  -5.7335  -5.6945  -5.4901   2.5369   5.4621   5.8810   6.1471
     6.2777   7.4202   7.7632   8.3502   8.5437   9.5378  13.0166  13.2231
    13.5797  14.8583

          k = 0.2500 0.2500 0.2500 (  5286 PWs)   bands (ev):

   -46.9027 -23.2197 -23.1421 -23.1419  -7.1181  -6.6535  -6.5531  -5.8238
    -5.8196  -5.7465  -5.6422  -5.6162   2.8029   5.9518   6.0140   6.3984
     6.8877   6.9437   8.3974   8.8456   8.9063   9.0497  12.5115  12.9152
    12.9217  14.0987

          k = 0.2500 0.2500 0.3500 (  5300 PWs)   bands (ev):

   -46.9024 -23.2191 -23.1556 -23.1415  -7.0434  -6.6437  -6.5313  -5.8190
    -5.8060  -5.7114  -5.6246  -5.5989   2.7648   5.8235   5.8811   6.1067
     6.6224   6.9023   8.2167   8.8350   8.9362   9.1796  12.5775  12.9737
    13.1594  14.2880

          k = 0.2500 0.2500 0.4500 (  5307 PWs)   bands (ev):

   -46.9023 -23.2188 -23.1640 -23.1411  -7.0072  -6.6430  -6.5009  -5.8156
    -5.7957  -5.6781  -5.6198  -5.5947   2.7341   5.7083   5.7642   5.9689
     6.5529   6.9412   7.9877   8.8617   8.8998   9.2358  12.6647  13.0660
    13.3416  14.5307

          k = 0.2500 0.3500 0.3500 (  5315 PWs)   bands (ev):

   -46.9022 -23.2330 -23.1550 -23.1409  -6.9173  -6.6745  -6.5557  -5.8131
    -5.7899  -5.6729  -5.6001  -5.5396   2.7939   5.5966   5.7212   5.8953
     6.3232   6.7931   7.7724   8.9134   9.0882   9.2798  12.7211  13.0953
    13.2864  14.6048

          k = 0.2500 0.3500 0.4500 (  5297 PWs)   bands (ev):

   -46.9020 -23.2327 -23.1634 -23.1406  -6.8929  -6.6899  -6.5211  -5.8074
    -5.7764  -5.6472  -5.5871  -5.5092   2.8121   5.5693   5.6142   5.7200
     6.1494   6.8163   7.4262   8.9370   9.0785   9.3854  12.9364  13.0917
    13.4226  14.9365

          k = 0.2500 0.4500 0.4500 (  5300 PWs)   bands (ev):

   -46.9018 -23.2412 -23.1630 -23.1402  -6.8495  -6.6859  -6.5337  -5.8039
    -5.7614  -5.6270  -5.5686  -5.4592   2.8499   5.3885   5.5736   5.6637
     5.9715   6.7904   6.9858   8.9338   9.1227   9.5239  13.0686  13.2085
    13.5116  15.2629

          k = 0.3500 0.3500 0.3500 (  5310 PWs)   bands (ev):

   -46.9019 -23.2325 -23.1545 -23.1544  -6.8675  -6.6643  -6.5942  -5.7928
    -5.7806  -5.6037  -5.5342  -5.5041   2.9793   5.3551   5.4462   5.7381
     6.2596   6.3316   7.1680   9.1760   9.2698   9.3965  12.8750  13.2606
    13.2610  14.9602

          k = 0.3500 0.3500 0.4500 (  5315 PWs)   bands (ev):

   -46.9017 -23.2321 -23.1628 -23.1541  -6.8639  -6.6657  -6.5781  -5.7842
    -5.7716  -5.5559  -5.5057  -5.4758   3.0990   5.2556   5.3125   5.5796
     6.1116   6.3048   6.7061   9.2323   9.3384   9.5057  13.0830  13.2238
    13.4097  15.3282

          k = 0.3500 0.4500 0.4500 (  5321 PWs)   bands (ev):

   -46.9016 -23.2406 -23.1624 -23.1538  -6.7720  -6.7172  -6.6104  -5.7814
    -5.7582  -5.5294  -5.4608  -5.4219   3.2898   5.1048   5.2418   5.4301
     5.9318   6.1213   6.2777   9.3240   9.4870   9.5192  13.2279  13.3253
    13.4789  15.6806

          k = 0.4500 0.4500 0.4500 (  5337 PWs)   bands (ev):

   -46.9014 -23.2403 -23.1621 -23.1621  -6.7987  -6.6613  -6.6484  -5.7687
    -5.7552  -5.4723  -5.4008  -5.3947   3.7348   4.9339   5.0060   5.3368
     5.4223   5.9209   6.0401   9.4974   9.5104   9.6567  13.3883  13.4539
    13.4582  16.0214

          k =-0.0500 0.1500 0.0500 (  5304 PWs)   bands (ev):

   -46.9038 -23.2074 -23.1212 -23.1212  -7.5898  -6.7633  -6.6401  -5.8053
    -5.7975  -5.7954  -5.6640  -5.6487   3.4611   6.3384   6.3488   6.5908
     8.0204   8.0457   8.4924   8.5864   8.9003   8.9265  11.7476  12.3899
    12.4057  13.7470

          k =-0.0500 0.2500 0.0500 (  5285 PWs)   bands (ev):

   -46.9035 -23.2216 -23.1207 -23.1207  -7.4410  -6.7374  -6.5821  -5.8111
    -5.8047  -5.8031  -5.7220  -5.6470   3.1312   6.2739   6.4412   6.5644
     7.7612   7.7906   8.5367   8.5777   8.9724   9.0171  11.7507  12.7523
    12.7760  13.7511

          k =-0.0500 0.3500 0.0500 (  5290 PWs)   bands (ev):

   -46.9033 -23.2356 -23.1202 -23.1202  -7.2768  -6.7216  -6.5140  -5.8348
    -5.8101  -5.8037  -5.7800  -5.6478   2.8619   5.9046   6.5503   6.6607
     7.5202   7.5347   8.4759   8.8094   9.0232   9.3311  11.7528  13.0984
    13.1282  13.4892

          k =-0.0500 0.4500 0.0500 (  5310 PWs)   bands (ev):

   -46.9031 -23.2443 -23.1199 -23.1199  -7.1620  -6.7222  -6.4641  -5.8691
    -5.8136  -5.8040  -5.8033  -5.6498   2.7176   5.6216   6.6349   6.7828
     7.3440   7.3657   8.4365   8.9054   9.0569   9.7298  11.7515  12.7917
    13.3053  13.3422

          k = 0.1500 0.0500 0.1500 (  5296 PWs)   bands (ev):

   -46.9036 -23.1980 -23.1299 -23.1297  -7.5348  -6.7242  -6.6195  -5.8179
    -5.7969  -5.7947  -5.6808  -5.6450   3.2853   6.3017   6.4763   6.7176
     7.8210   7.9455   8.3648   8.6265   8.7820   8.8792  12.2157  12.2724
    12.3057  14.2541

          k =-0.0500 0.2500 0.1500 (  5301 PWs)   bands (ev):

   -46.9034 -23.2212 -23.1292 -23.1204  -7.3748  -6.7111  -6.5739  -5.8213
    -5.8108  -5.8010  -5.6923  -5.6610   3.0113   6.1958   6.4655   6.6815
     7.5127   7.7727   8.2409   8.6809   8.7665   9.1280  12.0424  12.7593
    12.8111  14.0577

          k = 0.2500 0.0500 0.1500 (  5301 PWs)   bands (ev):

   -46.9034 -23.1975 -23.1435 -23.1292  -7.4229  -6.6762  -6.5760  -5.8264
    -5.8041  -5.7948  -5.7093  -5.6481   3.0297   6.2742   6.5203   6.7090
     7.6040   7.7095   8.2870   8.5922   8.7858   8.9868  12.2476  12.5572
    12.6462  14.2739

          k =-0.0500 0.3500 0.1500 (  5301 PWs)   bands (ev):

   -46.9031 -23.2352 -23.1287 -23.1199  -7.2195  -6.6953  -6.5208  -5.8427
    -5.8105  -5.8053  -5.7233  -5.6612   2.7801   5.8758   6.4930   6.7284
     7.3012   7.5581   8.3162   8.6707   8.8274   9.3778  12.0357  13.0977
    13.1401  13.6607

          k = 0.3500 0.0500 0.1500 (  5301 PWs)   bands (ev):

   -46.9031 -23.1970 -23.1572 -23.1287  -7.3108  -6.6147  -6.5363  -5.8394
    -5.8077  -5.7944  -5.7463  -5.6481   2.8100   5.9953   6.5705   6.8335
     7.3381   7.6901   8.0246   8.6500   8.7959   9.2429  12.2290  12.9190
    12.9937  13.6311

          k =-0.0500 0.4500 0.1500 (  5306 PWs)   bands (ev):

   -46.9029 -23.2439 -23.1283 -23.1196  -7.1146  -6.6913  -6.4838  -5.8629
    -5.8104  -5.8091  -5.7340  -5.6662   2.6521   5.6056   6.5213   6.8400
     7.1704   7.3914   8.4171   8.6487   8.8670   9.5703  12.0233  13.1610
    13.3200  13.3677

          k = 0.4500 0.0500 0.1500 (  5306 PWs)   bands (ev):

   -46.9030 -23.1967 -23.1656 -23.1284  -7.2424  -6.5584  -6.5230  -5.8534
    -5.8102  -5.7942  -5.7642  -5.6509   2.6895   5.7384   6.6969   6.9140
     7.2586   7.4967   7.9605   8.6442   8.8301   9.4685  12.1901  13.1433
    13.1671  13.2269

          k = 0.2500 0.0500 0.2500 (  5314 PWs)   bands (ev):

   -46.9031 -23.1970 -23.1431 -23.1428  -7.3334  -6.6367  -6.5270  -5.8257
    -5.8063  -5.7983  -5.6853  -5.6748   2.8490   6.2423   6.4226   6.7328
     7.3176   7.4087   8.3546   8.3802   8.9955   9.0199  12.4858  12.6072
    12.8951  14.2036

          k =-0.0500 0.3500 0.2500 (  5300 PWs)   bands (ev):

   -46.9028 -23.2346 -23.1423 -23.1194  -7.1374  -6.6583  -6.5024  -5.8380
    -5.8189  -5.8028  -5.6974  -5.6408   2.6500   5.8337   6.4159   6.6643
     7.2157   7.4848   7.8947   8.4888   8.9031   9.2985  12.4477  13.1153
    13.2410  13.9202

          k = 0.3500 0.0500 0.2500 (  5300 PWs)   bands (ev):

   -46.9029 -23.1965 -23.1566 -23.1424  -7.2544  -6.5741  -6.4806  -5.8306
    -5.8074  -5.7989  -5.6981  -5.6690   2.6811   6.0009   6.3578   6.7521
     7.1379   7.3954   8.0240   8.4826   8.9627   9.2127  12.5078  12.9214
    13.1563  13.9103

          k =-0.0500 0.4500 0.2500 (  5308 PWs)   bands (ev):

   -46.9027 -23.2432 -23.1419 -23.1191  -7.0594  -6.6400  -6.4724  -5.8501
    -5.8184  -5.8078  -5.6991  -5.6339   2.5462   5.5744   6.4250   6.6429
     7.1794   7.4103   7.9000   8.5349   8.8566   9.3426  12.4375  13.3277
    13.3899  13.8109

          k = 0.4500 0.0500 0.2500 (  5308 PWs)   bands (ev):

   -46.9027 -23.1962 -23.1650 -23.1420  -7.2124  -6.5113  -6.4628  -5.8391
    -5.8079  -5.8031  -5.6926  -5.6738   2.5841   5.7410   6.4449   6.6385
     7.1732   7.5103   7.7191   8.5707   8.8809   9.3233  12.4868  13.1610
    13.3313  13.7225

          k = 0.3500 0.0500 0.3500 (  5303 PWs)   bands (ev):

   -46.9026 -23.1960 -23.1560 -23.1559  -7.2175  -6.5004  -6.4229  -5.8261
    -5.8119  -5.7959  -5.7177  -5.6311   2.5540   5.9156   6.1120   6.7210
     6.8986   7.3973   8.0657   8.2135   8.8475   9.3818  12.8273  12.9541
    13.3394  14.1429

          k =-0.0500 0.4500 0.3500 (  5309 PWs)   bands (ev):

   -46.9024 -23.2425 -23.1555 -23.1186  -7.0348  -6.5839  -6.4122  -5.8414
    -5.8231  -5.8052  -5.7320  -5.5519   2.4411   5.5301   6.1111   6.6888
     7.1371   7.3902   7.7331   8.2237   8.6223   9.4237  12.8177  13.3300
    13.5519  14.3101

          k = 0.4500 0.0500 0.3500 (  5309 PWs)   bands (ev):

   -46.9024 -23.1956 -23.1643 -23.1556  -7.2039  -6.4294  -6.3944  -5.8288
    -5.8099  -5.8025  -5.7302  -5.6045   2.4771   5.6930   6.1153   6.6129
     6.8688   7.5545   7.8272   8.2480   8.6563   9.5173  12.8727  13.1529
    13.4696  14.2294

          k = 0.4500 0.0500 0.4500 (  5304 PWs)   bands (ev):

   -46.9023 -23.1953 -23.1639 -23.1639  -7.2067  -6.3614  -6.3497  -5.8279
    -5.8067  -5.8014  -5.7605  -5.5631   2.4106   5.5727   6.0030   6.6481
     6.6689   7.6962   7.9070   7.9928   8.4039   9.6804  13.1319  13.1552
    13.5615  14.4299

          k =-0.1500 0.2500 0.1500 (  5300 PWs)   bands (ev):

   -46.9032 -23.2208 -23.1290 -23.1288  -7.3101  -6.6921  -6.5704  -5.8292
    -5.8178  -5.7883  -5.6697  -5.6618   2.9421   6.1901   6.2593   6.7232
     7.4045   7.5713   8.1693   8.7658   8.8756   9.0047  12.2277  12.7674
    12.8178  14.2802

          k =-0.1500 0.3500 0.1500 (  5296 PWs)   bands (ev):

   -46.9029 -23.2348 -23.1284 -23.1283  -7.1598  -6.6781  -6.5379  -5.8461
    -5.8149  -5.7748  -5.6902  -5.6617   2.7501   5.8771   6.2130   6.6703
     7.2586   7.5588   8.0070   8.7800   8.9217   9.2324  12.1706  13.0880
    13.1211  13.8189

          k =-0.1500 0.4500 0.1500 (  5293 PWs)   bands (ev):

   -46.9028 -23.2435 -23.1281 -23.1280  -7.0602  -6.6736  -6.5168  -5.8553
    -5.8129  -5.7591  -5.7052  -5.6692   2.6396   5.6075   6.1764   6.7249
     7.1933   7.5354   7.9610   8.7766   8.9498   9.3380  12.1182  13.2923
    13.3139  13.6083

          k = 0.2500 0.1500 0.2500 (  5298 PWs)   bands (ev):

   -46.9030 -23.2057 -23.1427 -23.1424  -7.2520  -6.6434  -6.5370  -5.8287
    -5.8164  -5.7752  -5.6673  -5.6491   2.8374   6.1449   6.2488   6.5410
     7.0695   7.3307   8.4219   8.6473   8.8742   9.0131  12.5448  12.7081
    12.8663  14.0856

          k =-0.1500 0.3500 0.2500 (  5304 PWs)   bands (ev):

   -46.9027 -23.2342 -23.1420 -23.1278  -7.0742  -6.6590  -6.5362  -5.8387
    -5.8156  -5.7554  -5.6691  -5.6253   2.6915   5.8325   6.0986   6.3924
     6.9898   7.3619   8.0555   8.7422   8.9299   9.1386  12.4372  13.0623
    13.1836  14.0571

          k = 0.3500 0.1500 0.2500 (  5304 PWs)   bands (ev):

   -46.9027 -23.2052 -23.1562 -23.1420  -7.1741  -6.6014  -6.5032  -5.8304
    -5.8098  -5.7549  -5.6651  -5.6483   2.7173   5.9735   6.1627   6.3467
     6.8793   7.3141   8.2843   8.6483   8.8431   9.1656  12.5198  12.9295
    13.1192  14.0403

          k =-0.1500 0.4500 0.2500 (  5290 PWs)   bands (ev):

   -46.9025 -23.2428 -23.1416 -23.1275  -6.9939  -6.6473  -6.5271  -5.8415
    -5.8116  -5.7347  -5.6797  -5.6180   2.6095   5.5818   6.0070   6.3916
     6.9666   7.4431   7.8787   8.7921   8.8706   9.1655  12.4138  13.2704
    13.3569  14.1335

          k = 0.4500 0.1500 0.2500 (  5290 PWs)   bands (ev):

   -46.9025 -23.2048 -23.1646 -23.1417  -7.1336  -6.5681  -6.4796  -5.8304
    -5.8038  -5.7362  -5.6656  -5.6546   2.6433   5.7381   6.1190   6.3192
     6.8350   7.3693   8.1171   8.6950   8.7574   9.2336  12.4978  13.1189
    13.3096  14.0769

          k = 0.3500 0.1500 0.3500 (  5305 PWs)   bands (ev):

   -46.9024 -23.2046 -23.1557 -23.1555  -7.1373  -6.5448  -6.4717  -5.8223
    -5.8037  -5.7320  -5.6629  -5.6155   2.6490   5.9002   5.9940   6.1611
     6.5344   7.2819   8.2650   8.5445   8.6699   9.3848  12.7436  12.9693
    13.2750  14.3074

          k =-0.1500 0.4500 0.3500 (  5304 PWs)   bands (ev):

   -46.9023 -23.2422 -23.1552 -23.1270  -6.9639  -6.6225  -6.4842  -5.8317
    -5.7956  -5.7215  -5.6943  -5.5359   2.5678   5.5206   6.0381   6.0622
     6.5518   7.3820   7.9304   8.4712   8.6694   9.3908  12.7746  13.2392
    13.4716  14.5944

          k = 0.4500 0.1500 0.3500 (  5304 PWs)   bands (ev):

   -46.9023 -23.2043 -23.1640 -23.1552  -7.1253  -6.4986  -6.4497  -5.8193
    -5.7933  -5.7157  -5.6734  -5.5902   2.6021   5.6852   6.0050   6.0694
     6.4254   7.3137   8.0911   8.4915   8.5956   9.5099  12.8319  13.1035
    13.4117  14.5446

          k = 0.4500 0.1500 0.4500 (  5310 PWs)   bands (ev):

   -46.9021 -23.2039 -23.1636 -23.1636  -7.1300  -6.4420  -6.4314  -5.8150
    -5.7759  -5.7013  -5.6900  -5.5492   2.5701   5.5625   5.9616   6.0759
     6.1544   7.3304   7.8623   8.4804   8.4874   9.6758  13.0744  13.1136
    13.5038  14.8412

          k =-0.2500 0.3500 0.2500 (  5300 PWs)   bands (ev):

   -46.9024 -23.2336 -23.1415 -23.1414  -6.9833  -6.6602  -6.5694  -5.8253
    -5.8065  -5.7101  -5.6272  -5.5893   2.7500   5.7453   5.8264   6.1252
     6.8098   6.8271   8.1218   8.8818   9.0198   9.1185  12.5115  13.0658
    13.1729  14.2957

          k =-0.2500 0.4500 0.2500 (  5307 PWs)   bands (ev):

   -46.9023 -23.2422 -23.1412 -23.1410  -6.9027  -6.6593  -6.5794  -5.8242
    -5.7982  -5.6707  -5.6342  -5.5746   2.7093   5.5922   5.6203   6.0838
     6.7844   6.8544   7.8843   8.8458   9.0490   9.1678  12.5562  13.2148
    13.3559  14.5681

          k = 0.3500 0.2500 0.3500 (  5315 PWs)   bands (ev):

   -46.9022 -23.2186 -23.1551 -23.1550  -7.0048  -6.6073  -6.5380  -5.8025
    -5.7972  -5.6586  -5.5811  -5.5797   2.8109   5.6737   5.6760   5.8930
     6.3688   6.7024   7.8026   8.9488   8.9907   9.3901  12.7236  13.0712
    13.2518  14.5994

          k =-0.2500 0.4500 0.3500 (  5297 PWs)   bands (ev):

   -46.9020 -23.2416 -23.1546 -23.1406  -6.8528  -6.6753  -6.5715  -5.8103
    -5.7778  -5.6421  -5.5926  -5.5043   2.8008   5.4291   5.6027   5.7907
     6.2623   6.7787   7.4143   8.9085   9.1252   9.3738  12.8353  13.2113
    13.4224  14.9519

          k = 0.4500 0.2500 0.3500 (  5297 PWs)   bands (ev):

   -46.9020 -23.2182 -23.1634 -23.1547  -6.9963  -6.5893  -6.5199  -5.7982
    -5.7847  -5.6137  -5.5804  -5.5544   2.8300   5.5449   5.6505   5.6846
     6.2540   6.6995   7.4593   8.9773   8.9976   9.5057  12.8956  13.1116
    13.3883  14.9324

          k = 0.4500 0.2500 0.4500 (  5300 PWs)   bands (ev):

   -46.9018 -23.2179 -23.1630 -23.1630  -7.0048  -6.5396  -6.5296  -5.7922
    -5.7717  -5.5753  -5.5639  -5.5214   2.8815   5.4961   5.5367   5.5679
     6.0404   6.6740   7.0537   9.0100   9.0141   9.6685  13.1022  13.1562
    13.4635  15.2459

          k =-0.3500 0.4500 0.3500 (  5315 PWs)   bands (ev):

   -46.9017 -23.2410 -23.1541 -23.1540  -6.7706  -6.7080  -6.6255  -5.7905
    -5.7668  -5.5722  -5.5028  -5.4603   3.0820   5.1751   5.4309   5.5210
     6.1233   6.3233   6.6993   9.2579   9.3845   9.4063  13.0318  13.2902
    13.4193  15.3312

          k = 0.4500 0.3500 0.4500 (  5321 PWs)   bands (ev):

   -46.9016 -23.2317 -23.1625 -23.1624  -6.8784  -6.6176  -6.6069  -5.7698
    -5.7693  -5.4981  -5.4591  -5.4558   3.3142   5.1384   5.1430   5.4613
     6.0385   6.1306   6.1821   9.3494   9.3582   9.6613  13.2535  13.3113
    13.4456  15.6751

     the Fermi energy is     9.7254 ev

!    total energy              =    -364.95263064 Ry
     Harris-Foulkes estimate   =    -364.95263065 Ry
     estimated scf accuracy    <          4.2E-09 Ry

     The total energy is the sum of the following terms:

     one-electron contribution =     -89.30953889 Ry
     hartree contribution      =      72.91077418 Ry
     xc contribution           =     -85.69055832 Ry
     ewald contribution        =    -262.86985204 Ry
     smearing contrib. (-TS)   =       0.00654442 Ry

     convergence has been achieved in   7 iterations

     Forces acting on atoms (cartesian axes, Ry/au):

     atom    1 type  1   force =     0.00000000    0.01517277    0.00000000
     atom    2 type  2   force =     0.00000000   -0.01790044    0.00000000
     atom    3 type  3   force =     0.00000000    0.00459211    0.00000000
     atom    4 type  3   force =     0.00000000   -0.00645655    0.00000000
     atom    5 type  3   force =     0.00000000    0.00459211    0.00000000

     Total force =     0.020107     Total SCF correction =     0.000149


     Computing stress (Cartesian axis) and pressure

          total   stress  (Ry/bohr**3)                   (kbar)     P=  -51.40
  -0.00042519   0.00000000   0.00000000        -62.55      0.00      0.00
   0.00000000  -0.00019790   0.00000000          0.00    -29.11      0.00
   0.00000000   0.00000000  -0.00042519          0.00      0.00    -62.55


     number of scf cycles    =   2
     number of bfgs steps    =   1

     energy   old            =    -364.9520542104 Ry
     energy   new            =    -364.9526306449 Ry

     CASE: energy  _new < energy  _old

     new trust radius        =       0.0253496496 bohr
     new conv_thr            =       0.0000000006 Ry


ATOMIC_POSITIONS (crystal)
Pb       0.000000000   0.000000000   0.000000000    0   0   0
Ti       0.500000000   0.541632265   0.500000000
O        0.500000000   0.501676928   0.000000000
O        0.500000000  -0.001994218   0.500000000
O        0.000000000   0.501676928   0.500000000



     Writing output data file PbTiO3.save/
     NEW-OLD atomic charge density approx. for the potential

     Check: negative core charge=   -0.000006

     total cpu time spent up to now is      853.9 secs

     Self-consistent Calculation

     iteration #  1     ecut=    80.00 Ry     beta= 0.70
     Davidson diagonalization with overlap
     ethr =  1.00E-06,  avg # of iterations =  4.2

     total cpu time spent up to now is      916.4 secs

     total energy              =    -364.95310631 Ry
     Harris-Foulkes estimate   =    -364.95313367 Ry
     estimated scf accuracy    <       0.00005222 Ry

     iteration #  2     ecut=    80.00 Ry     beta= 0.70
     Davidson diagonalization with overlap
     ethr =  1.19E-07,  avg # of iterations =  3.8

     total cpu time spent up to now is      958.5 secs

     total energy              =    -364.95309348 Ry
     Harris-Foulkes estimate   =    -364.95314897 Ry
     estimated scf accuracy    <       0.00014316 Ry

     iteration #  3     ecut=    80.00 Ry     beta= 0.70
     Davidson diagonalization with overlap
     ethr =  1.19E-07,  avg # of iterations =  3.6

     total cpu time spent up to now is      996.8 secs

     total energy              =    -364.95312227 Ry
     Harris-Foulkes estimate   =    -364.95312669 Ry
     estimated scf accuracy    <       0.00001408 Ry

     iteration #  4     ecut=    80.00 Ry     beta= 0.70
     Davidson diagonalization with overlap
     ethr =  3.20E-08,  avg # of iterations =  2.6

     total cpu time spent up to now is     1030.1 secs

     total energy              =    -364.95312436 Ry
     Harris-Foulkes estimate   =    -364.95312466 Ry
     estimated scf accuracy    <       0.00000061 Ry

     iteration #  5     ecut=    80.00 Ry     beta= 0.70
     Davidson diagonalization with overlap
     ethr =  1.38E-09,  avg # of iterations =  3.8

     total cpu time spent up to now is     1070.5 secs

     total energy              =    -364.95312459 Ry
     Harris-Foulkes estimate   =    -364.95312463 Ry
     estimated scf accuracy    <       0.00000009 Ry

     iteration #  6     ecut=    80.00 Ry     beta= 0.70
     Davidson diagonalization with overlap
     ethr =  2.12E-10,  avg # of iterations =  3.8

     total cpu time spent up to now is     1108.9 secs

     total energy              =    -364.95312460 Ry
     Harris-Foulkes estimate   =    -364.95312464 Ry
     estimated scf accuracy    <       0.00000013 Ry

     iteration #  7     ecut=    80.00 Ry     beta= 0.70
     Davidson diagonalization with overlap
     ethr =  2.12E-10,  avg # of iterations =  2.9

     total cpu time spent up to now is     1142.2 secs

     total energy              =    -364.95312462 Ry
     Harris-Foulkes estimate   =    -364.95312462 Ry
     estimated scf accuracy    <          1.3E-09 Ry

     iteration #  8     ecut=    80.00 Ry     beta= 0.70
     Davidson diagonalization with overlap
     ethr =  2.99E-12,  avg # of iterations =  3.7

     total cpu time spent up to now is     1184.8 secs

     End of self-consistent calculation

          k = 0.0500 0.0500 0.0500 (  5326 PWs)   bands (ev):

   -46.9202 -23.2068 -23.1374 -23.1374  -7.6751  -6.7794  -6.6798  -5.8014
    -5.7875  -5.7872  -5.6478  -5.6297   3.7175   6.2979   6.3333   6.4446
     8.2485   8.2722   8.6045   8.6568   8.8821   8.8996  11.7344  12.0944
    12.0991  13.7221

          k = 0.0500 0.0500 0.1500 (  5304 PWs)   bands (ev):

   -46.9200 -23.2065 -23.1460 -23.1371  -7.6014  -6.7478  -6.6538  -5.8076
    -5.7937  -5.7869  -5.6757  -5.6307   3.4712   6.3460   6.4088   6.5900
     8.0276   8.2033   8.5209   8.6035   8.7516   8.8669  12.0312  12.1040
    12.2252  13.8939

          k = 0.0500 0.0500 0.2500 (  5285 PWs)   bands (ev):

   -46.9197 -23.2060 -23.1598 -23.1366  -7.4783  -6.6917  -6.6123  -5.8181
    -5.8039  -5.7862  -5.7289  -5.6288   3.1521   6.3208   6.5252   6.6338
     7.8672   7.9787   8.4381   8.5362   8.6899   8.9267  12.1031  12.4682
    12.5568  13.9021

          k = 0.0500 0.0500 0.3500 (  5290 PWs)   bands (ev):

   -46.9195 -23.2055 -23.1735 -23.1361  -7.3498  -6.6265  -6.5732  -5.8336
    -5.8150  -5.7855  -5.7831  -5.6286   2.8949   5.9809   6.7068   6.8065
     7.5958   7.7012   8.4025   8.4725   8.7992   9.2364  12.1047  12.8616
    12.9339  13.4308

          k = 0.0500 0.0500 0.4500 (  5310 PWs)   bands (ev):

   -46.9193 -23.2051 -23.1820 -23.1358  -7.2672  -6.5754  -6.5550  -5.8579
    -5.8236  -5.8051  -5.7850  -5.6298   2.7588   5.7150   6.9067   7.0588
     7.3174   7.3835   8.3802   8.4730   8.8538   9.6239  12.0946  12.7532
    13.0938  13.1894

          k = 0.0500 0.1500 0.1500 (  5296 PWs)   bands (ev):

   -46.9198 -23.2152 -23.1456 -23.1368  -7.5175  -6.7305  -6.6279  -5.8079
    -5.8020  -5.7924  -5.6687  -5.6517   3.2835   6.3027   6.4131   6.7318
     7.7907   8.0230   8.3660   8.6612   8.7079   8.9483  12.0339  12.3479
    12.4414  14.0088

          k = 0.0500 0.1500 0.2500 (  5301 PWs)   bands (ev):

   -46.9196 -23.2147 -23.1594 -23.1363  -7.3990  -6.6810  -6.5945  -5.8215
    -5.8092  -5.7919  -5.6998  -5.6445   3.0266   6.2493   6.5249   6.6937
     7.6041   7.8478   8.2467   8.4854   8.7073   9.0822  12.3401  12.4741
    12.7169  14.0792

          k = 0.0500 0.1500 0.3500 (  5301 PWs)   bands (ev):

   -46.9193 -23.2141 -23.1731 -23.1358  -7.2775  -6.6292  -6.5583  -5.8379
    -5.8162  -5.7917  -5.7262  -5.6436   2.8071   5.9719   6.6245   6.7829
     7.3612   7.6835   8.1772   8.4986   8.6884   9.2848  12.3410  12.8579
    13.0471  13.5852

          k = 0.0500 0.1500 0.4500 (  5306 PWs)   bands (ev):

   -46.9191 -23.2138 -23.1815 -23.1355  -7.2009  -6.5960  -6.5334  -5.8515
    -5.8232  -5.7914  -5.7346  -5.6479   2.6871   5.7189   6.7564   6.9244
     7.1931   7.4303   8.2197   8.5638   8.6595   9.4446  12.3256  13.0839
    13.1311  13.2780

          k = 0.0500 0.2500 0.2500 (  5314 PWs)   bands (ev):

   -46.9193 -23.2287 -23.1588 -23.1358  -7.2694  -6.6685  -6.5550  -5.8249
    -5.8129  -5.7974  -5.6804  -5.6565   2.8347   6.1350   6.4942   6.6487
     7.3911   7.5672   8.0417   8.4391   8.8745   9.1999  12.4526  12.7258
    12.9760  14.0806

          k = 0.0500 0.2500 0.3500 (  5300 PWs)   bands (ev):

   -46.9190 -23.2281 -23.1725 -23.1353  -7.1681  -6.6360  -6.5098  -5.8336
    -5.8153  -5.7988  -5.6911  -5.6374   2.6665   5.9449   6.3752   6.7455
     7.2026   7.5210   7.9419   8.2768   8.9610   9.2002  12.7015  12.8541
    13.2284  13.8513

          k = 0.0500 0.2500 0.4500 (  5308 PWs)   bands (ev):

   -46.9189 -23.2277 -23.1809 -23.1350  -7.1100  -6.6146  -6.4737  -5.8397
    -5.8215  -5.8002  -5.6853  -5.6347   2.5702   5.7164   6.4070   6.7505
     7.1239   7.5349   7.8525   8.2880   8.9423   9.1843  12.7002  13.0733
    13.4135  13.6863

          k = 0.0500 0.3500 0.3500 (  5303 PWs)   bands (ev):

   -46.9188 -23.2420 -23.1719 -23.1347  -7.0795  -6.6116  -6.4539  -5.8325
    -5.8182  -5.7993  -5.7153  -5.5838   2.5292   5.7795   6.1212   6.7554
     7.1359   7.3749   7.8310   8.1925   8.8524   9.3049  12.8252  13.0766
    13.4183  14.1256

          k = 0.0500 0.3500 0.4500 (  5309 PWs)   bands (ev):

   -46.9186 -23.2416 -23.1802 -23.1344  -7.0540  -6.5808  -6.4066  -5.8337
    -5.8202  -5.8031  -5.7234  -5.5528   2.4532   5.6504   6.0058   6.8060
     6.9862   7.5513   7.7405   8.0755   8.6286   9.3934  13.0470  13.0773
    13.5720  14.1976

          k = 0.0500 0.4500 0.4500 (  5304 PWs)   bands (ev):

   -46.9184 -23.2502 -23.1798 -23.1341  -7.0399  -6.5313  -6.3603  -5.8360
    -5.8194  -5.8015  -5.7498  -5.5064   2.3813   5.4825   5.8929   6.8211
     6.9419   7.5364   7.7727   7.9807   8.3078   9.5584  13.0425  13.2940
    13.6833  14.4873

          k = 0.1500 0.1500 0.1500 (  5296 PWs)   bands (ev):

   -46.9197 -23.2149 -23.1454 -23.1452  -7.4491  -6.7082  -6.6082  -5.8148
    -5.8071  -5.7910  -5.6680  -5.6520   3.1547   6.2938   6.3280   6.8322
     7.6394   7.7566   8.3527   8.7204   8.8074   8.8168  12.2463  12.4283
    12.4538  14.4815

          k = 0.1500 0.1500 0.2500 (  5300 PWs)   bands (ev):

   -46.9194 -23.2143 -23.1591 -23.1448  -7.3382  -6.6699  -6.5751  -5.8272
    -5.8079  -5.7867  -5.6832  -5.6450   2.9583   6.2252   6.3390   6.7125
     7.4116   7.5461   8.3507   8.6137   8.8030   8.9893  12.3968  12.5979
    12.7104  14.2632

          k = 0.1500 0.1500 0.3500 (  5296 PWs)   bands (ev):

   -46.9191 -23.2138 -23.1727 -23.1443  -7.2286  -6.6282  -6.5392  -5.8383
    -5.8019  -5.7793  -5.7045  -5.6438   2.7782   5.9751   6.3591   6.6417
     7.1896   7.5927   8.1073   8.6693   8.8138   9.1619  12.3404  12.9151
    13.0342  13.7842

          k = 0.1500 0.1500 0.4500 (  5293 PWs)   bands (ev):

   -46.9190 -23.2135 -23.1812 -23.1440  -7.1625  -6.6007  -6.5142  -5.8430
    -5.7976  -5.7706  -5.7191  -5.6490   2.6757   5.7239   6.3708   6.6991
     7.0754   7.7079   7.8746   8.7390   8.7979   9.2435  12.2792  13.1213
    13.2555  13.5566

          k = 0.1500 0.2500 0.2500 (  5298 PWs)   bands (ev):

   -46.9191 -23.2283 -23.1585 -23.1443  -7.2071  -6.6627  -6.5595  -5.8292
    -5.8158  -5.7732  -5.6620  -5.6398   2.8297   6.0988   6.2268   6.5461
     7.1242   7.3468   8.2996   8.6350   8.9105   9.0682  12.4943  12.7408
    12.9311  14.0735

          k = 0.1500 0.2500 0.3500 (  5304 PWs)   bands (ev):

   -46.9189 -23.2278 -23.1721 -23.1437  -7.1111  -6.6477  -6.5205  -5.8319
    -5.8068  -5.7619  -5.6644  -5.6222   2.7088   5.9321   6.1911   6.3502
     6.8469   7.3784   8.2819   8.5140   8.9345   9.1018  12.5883  12.8847
    13.1667  14.0313

          k = 0.1500 0.2500 0.4500 (  5290 PWs)   bands (ev):

   -46.9187 -23.2274 -23.1805 -23.1434  -7.0573  -6.6415  -6.4855  -5.8311
    -5.7988  -5.7568  -5.6590  -5.6209   2.6349   5.7165   6.1652   6.3111
     6.7555   7.4714   8.1003   8.6003   8.8282   9.1203  12.5809  13.0706
    13.3522  14.0725

          k = 0.1500 0.3500 0.3500 (  5305 PWs)   bands (ev):

   -46.9186 -23.2417 -23.1715 -23.1432  -7.0121  -6.6407  -6.4994  -5.8290
    -5.8001  -5.7418  -5.6718  -5.5683   2.6277   5.7599   6.0666   6.1557
[...]

   -46.8910 -23.2430 -23.1418 -23.1416  -7.2915  -6.8532  -6.7153  -5.6233
    -5.6227  -5.5568  -5.4403  -5.3036   2.8294   5.8159   5.8413   6.2696
     6.8802   6.9581   8.2907   8.6471   8.8591   8.9418  12.4956  12.9218
    13.0539  14.4005

          k = 0.2500 0.2500 0.3500 (  5300 PWs)   bands (ev):

   -46.8908 -23.2424 -23.1551 -23.1412  -7.1840  -6.8404  -6.7384  -5.6214
    -5.6074  -5.5300  -5.3988  -5.2953   2.7366   5.6942   5.7182   6.0106
     6.6061   6.9659   8.2888   8.6877   8.8099   8.9720  12.6545  12.9593
    13.1911  14.5791

          k = 0.2500 0.2500 0.4500 (  5307 PWs)   bands (ev):

   -46.8906 -23.2420 -23.1634 -23.1408  -7.1235  -6.8129  -6.7649  -5.6193
    -5.5969  -5.5107  -5.3665  -5.3008   2.6756   5.5723   5.6270   5.9057
     6.4918   7.0356   8.1570   8.6871   8.7626   9.0200  12.7969  12.9785
    13.3453  14.8172

          k = 0.2500 0.3500 0.3500 (  5315 PWs)   bands (ev):

   -46.8905 -23.2563 -23.1545 -23.1406  -7.1249  -6.8478  -6.6743  -5.6129
    -5.5946  -5.5122  -5.3769  -5.2629   2.7936   5.4627   5.5036   5.8392
     6.2807   6.8096   8.0441   8.7735   8.8022   9.1338  12.7334  13.1834
    13.3331  14.7952

          k = 0.2500 0.3500 0.4500 (  5297 PWs)   bands (ev):

   -46.8903 -23.2558 -23.1628 -23.1403  -7.0907  -6.8154  -6.6915  -5.6087
    -5.5823  -5.4964  -5.3461  -5.2480   2.7817   5.3764   5.4025   5.6907
     6.1463   6.8515   7.7757   8.7668   8.8025   9.2417  12.9604  13.1345
    13.4475  15.1483

          k = 0.2500 0.4500 0.4500 (  5300 PWs)   bands (ev):

   -46.8902 -23.2644 -23.1624 -23.1399  -7.0867  -6.8177  -6.6262  -5.6056
    -5.5691  -5.4860  -5.3345  -5.2159   2.8435   5.2175   5.2924   5.5832
     5.9678   6.8043   7.4608   8.7826   8.8280   9.3855  13.0166  13.3341
    13.5293  15.3564

          k = 0.3500 0.3500 0.3500 (  5310 PWs)   bands (ev):

   -46.8902 -23.2556 -23.1540 -23.1539  -7.0192  -6.8674  -6.7133  -5.5885
    -5.5881  -5.4610  -5.3113  -5.2425   2.8490   5.2743   5.3445   5.5895
     6.2755   6.3790   7.5450   9.0164   9.0561   9.1762  12.8994  13.2669
    13.3055  15.1712

          k = 0.3500 0.3500 0.4500 (  5315 PWs)   bands (ev):

   -46.8901 -23.2552 -23.1622 -23.1536  -6.9732  -6.8532  -6.7417  -5.5856
    -5.5719  -5.4256  -5.2738  -5.2304   2.8693   5.1663   5.3025   5.4422
     6.1237   6.3640   7.1383   9.0796   9.1539   9.2685  13.0952  13.2259
    13.4048  15.5593

          k = 0.3500 0.4500 0.4500 (  5321 PWs)   bands (ev):

   -46.8899 -23.2637 -23.1618 -23.1533  -6.9758  -6.8683  -6.6730  -5.5772
    -5.5644  -5.4120  -5.2451  -5.1954   3.0468   4.9952   5.1100   5.3267
     5.9547   6.2932   6.7291   9.1809   9.2032   9.3837  13.1888  13.3779
    13.4839  15.8101

          k = 0.4500 0.4500 0.4500 (  5337 PWs)   bands (ev):

   -46.8897 -23.2633 -23.1615 -23.1615  -6.9091  -6.8948  -6.7006  -5.5644
    -5.5568  -5.3653  -5.1920  -5.1827   3.1666   4.9610   5.0118   5.2209
     5.9260   6.0499   6.1706   9.3710   9.3713   9.3915  13.3445  13.4544
    13.4574  16.2023

          k =-0.0500 0.1500 0.0500 (  5304 PWs)   bands (ev):

   -46.8921 -23.2309 -23.1213 -23.1212  -7.7707  -6.9063  -6.7477  -5.6188
    -5.6184  -5.5916  -5.5414  -5.3389   3.5834   6.1384   6.1554   6.8190
     7.8631   7.8702   8.3176   8.4061   8.6655   8.6882  11.7233  12.6339
    12.6782  13.8037

          k =-0.0500 0.2500 0.0500 (  5285 PWs)   bands (ev):

   -46.8919 -23.2450 -23.1207 -23.1207  -7.6496  -6.8737  -6.7055  -5.6285
    -5.6241  -5.5908  -5.5289  -5.3749   3.2680   6.1600   6.1792   6.5726
     7.6911   7.6955   8.3627   8.4111   8.6993   8.8786  11.7254  12.9591
    13.0152  13.8133

          k =-0.0500 0.3500 0.0500 (  5290 PWs)   bands (ev):

   -46.8916 -23.2590 -23.1202 -23.1202  -7.5252  -6.8394  -6.6624  -5.6381
    -5.6301  -5.5900  -5.5159  -5.4127   3.0002   5.9651   6.2152   6.3704
     7.5544   7.5549   8.3063   8.5395   8.7354   9.2968  11.7269  13.2736
    13.3283  13.3807

          k =-0.0500 0.4500 0.0500 (  5310 PWs)   bands (ev):

   -46.8914 -23.2677 -23.1199 -23.1199  -7.4467  -6.8172  -6.6350  -5.6439
    -5.6338  -5.5895  -5.5077  -5.4371   2.8523   5.7091   6.2342   6.3678
     7.4756   7.4811   8.2693   8.5950   8.7584   9.7062  11.7264  12.7090
    13.4571  13.5537

          k = 0.1500 0.0500 0.1500 (  5296 PWs)   bands (ev):

   -46.8920 -23.2215 -23.1297 -23.1296  -7.6929  -6.8954  -6.7638  -5.6378
    -5.6189  -5.5977  -5.5182  -5.3174   3.3522   6.1399   6.3323   6.8105
     7.6928   7.7649   8.1170   8.4535   8.5774   8.8983  12.1739  12.3614
    12.4576  14.4651

          k =-0.0500 0.2500 0.1500 (  5301 PWs)   bands (ev):

   -46.8917 -23.2446 -23.1291 -23.1204  -7.5813  -6.8695  -6.6963  -5.6299
    -5.6194  -5.5968  -5.5246  -5.3564   3.1404   6.0240   6.2409   6.7020
     7.4250   7.6578   8.0764   8.4754   8.5408   9.0946  11.9854  12.8897
    13.0223  14.1189

          k = 0.2500 0.0500 0.1500 (  5301 PWs)   bands (ev):

   -46.8917 -23.2210 -23.1432 -23.1291  -7.5670  -6.8714  -6.7634  -5.6514
    -5.6172  -5.5943  -5.4958  -5.3244   3.0695   6.1085   6.3608   6.7410
     7.4295   7.6459   8.1208   8.4233   8.5519   9.0688  12.3813  12.5008
    12.6160  14.4429

          k =-0.0500 0.3500 0.1500 (  5301 PWs)   bands (ev):

   -46.8914 -23.2586 -23.1285 -23.1199  -7.4656  -6.8420  -6.6489  -5.6386
    -5.6137  -5.5963  -5.5183  -5.3814   2.9166   5.8084   6.2343   6.5168
     7.3133   7.5398   8.0766   8.4874   8.5646   9.4137  11.9780  13.2037
    13.3479  13.6033

          k = 0.3500 0.0500 0.1500 (  5301 PWs)   bands (ev):

   -46.8914 -23.2204 -23.1567 -23.1286  -7.4326  -6.8464  -6.7700  -5.6600
    -5.6124  -5.5886  -5.4682  -5.3466   2.8315   5.8581   6.4306   6.7985
     7.1633   7.6688   7.8702   8.4589   8.5812   9.3255  12.4032  12.8042
    12.9223  14.0801

          k =-0.0500 0.4500 0.1500 (  5306 PWs)   bands (ev):

   -46.8913 -23.2673 -23.1282 -23.1196  -7.3945  -6.8240  -6.6172  -5.6441
    -5.6098  -5.5960  -5.5146  -5.3974   2.7888   5.5912   6.2112   6.4881
     7.2578   7.4766   8.1062   8.4767   8.5839   9.6558  11.9693  13.1193
    13.4010  13.5543

          k = 0.4500 0.0500 0.1500 (  5306 PWs)   bands (ev):

   -46.8913 -23.2200 -23.1650 -23.1283  -7.3436  -6.8248  -6.7850  -5.6629
    -5.6091  -5.5843  -5.4309  -5.3842   2.7024   5.6356   6.5518   6.7900
     7.1648   7.4292   7.8202   8.4682   8.6027   9.5562  12.3832  13.0030
    13.1677  13.6391

          k = 0.2500 0.0500 0.2500 (  5314 PWs)   bands (ev):

   -46.8915 -23.2204 -23.1428 -23.1425  -7.4509  -6.8462  -6.7744  -5.6531
    -5.6166  -5.5767  -5.4685  -5.3284   2.8341   6.1207   6.2286   6.7251
     7.2746   7.3288   8.2171   8.2499   8.7314   9.1585  12.5084  12.5852
    12.7711  14.5336

          k =-0.0500 0.3500 0.2500 (  5300 PWs)   bands (ev):

   -46.8912 -23.2580 -23.1420 -23.1194  -7.3766  -6.8347  -6.6249  -5.6368
    -5.6085  -5.5950  -5.5139  -5.3353   2.7870   5.6526   6.3368   6.4731
     7.1348   7.3062   7.7850   8.2577   8.7458   9.3912  12.3487  13.2673
    13.3667  13.9706

          k = 0.3500 0.0500 0.2500 (  5300 PWs)   bands (ev):

   -46.8912 -23.2198 -23.1561 -23.1421  -7.3312  -6.8219  -6.7857  -5.6530
    -5.6084  -5.5533  -5.4414  -5.3463   2.6220   5.8666   6.2317   6.6998
     7.1154   7.3672   7.9087   8.3556   8.8348   9.2191  12.5370  12.8509
    12.9941  14.3450

          k =-0.0500 0.4500 0.2500 (  5308 PWs)   bands (ev):

   -46.8910 -23.2665 -23.1416 -23.1191  -7.3238  -6.8165  -6.5844  -5.6421
    -5.6059  -5.5822  -5.5205  -5.3356   2.6891   5.4442   6.2786   6.4529
     7.0931   7.2629   7.7356   8.2847   8.7509   9.4684  12.3385  13.4436
    13.5600  13.7640

          k = 0.4500 0.0500 0.2500 (  5308 PWs)   bands (ev):

   -46.8910 -23.2195 -23.1644 -23.1417  -7.2555  -6.8054  -6.7946  -5.6520
    -5.6018  -5.5322  -5.4127  -5.3778   2.5015   5.6351   6.3263   6.5802
     7.1696   7.4508   7.6300   8.4363   8.8308   9.2682  12.5251  13.0443
    13.1858  14.1436

          k = 0.3500 0.0500 0.3500 (  5303 PWs)   bands (ev):

   -46.8909 -23.2193 -23.1556 -23.1554  -7.2363  -6.7971  -6.7920  -5.6467
    -5.5946  -5.5136  -5.4149  -5.3576   2.4228   5.7549   6.0487   6.7043
     7.0090   7.3206   7.8869   8.1811   9.0083   9.1023  12.7898  12.9052
    13.1067  14.4228

          k =-0.0500 0.4500 0.3500 (  5309 PWs)   bands (ev):

   -46.8908 -23.2658 -23.1550 -23.1186  -7.2778  -6.7738  -6.5529  -5.6408
    -5.6135  -5.5788  -5.5041  -5.2791   2.5960   5.3314   6.1233   6.4744
     6.8364   7.1885   7.6541   8.0389   8.7974   9.3679  12.6752  13.5311
    13.6094  14.3091

          k = 0.4500 0.0500 0.3500 (  5309 PWs)   bands (ev):

   -46.8908 -23.2189 -23.1638 -23.1551  -7.1841  -6.7907  -6.7791  -5.6433
    -5.5822  -5.4778  -5.3974  -5.3796   2.3049   5.5628   6.0624   6.6539
     6.9630   7.4784   7.6867   8.1769   8.8280   9.2384  12.8367  13.0796
    13.2126  14.3702

          k = 0.4500 0.0500 0.4500 (  5304 PWs)   bands (ev):

   -46.8906 -23.2185 -23.1634 -23.1634  -7.1528  -6.7700  -6.7670  -5.6390
    -5.5628  -5.4330  -5.3929  -5.3917   2.1859   5.4381   5.9974   6.7489
     6.7964   7.5989   7.7088   7.9758   8.5840   9.3963  13.0817  13.1116
    13.2374  14.3054

          k =-0.1500 0.2500 0.1500 (  5300 PWs)   bands (ev):

   -46.8916 -23.2443 -23.1288 -23.1287  -7.5129  -6.8656  -6.6958  -5.6339
    -5.6176  -5.5937  -5.5077  -5.3406   3.0522   6.0428   6.0455   6.7302
     7.3086   7.4149   8.0317   8.5200   8.6728   9.0727  12.1465  12.8422
    13.0099  14.4061

          k =-0.1500 0.3500 0.1500 (  5296 PWs)   bands (ev):

   -46.8913 -23.2582 -23.1283 -23.1282  -7.4040  -6.8469  -6.6459  -5.6414
    -5.6061  -5.5854  -5.5051  -5.3572   2.8732   5.8059   5.9682   6.5498
     7.2520   7.3230   7.9440   8.5467   8.6877   9.3225  12.1102  13.1565
    13.3248  13.8271

          k =-0.1500 0.4500 0.1500 (  5293 PWs)   bands (ev):

   -46.8911 -23.2668 -23.1279 -23.1278  -7.3385  -6.8351  -6.6106  -5.6452
    -5.6021  -5.5738  -5.5067  -5.3683   2.7664   5.5813   5.9181   6.5124
     7.2536   7.2838   7.8883   8.5585   8.6916   9.4694  12.0822  13.3595
    13.4987  13.5434

          k = 0.2500 0.1500 0.2500 (  5298 PWs)   bands (ev):

   -46.8913 -23.2291 -23.1424 -23.1422  -7.3871  -6.8488  -6.7560  -5.6416
    -5.6196  -5.5702  -5.4571  -5.3183   2.8376   6.0103   6.0997   6.4138
     7.1160   7.3026   8.2082   8.4676   8.7661   9.0403  12.5400  12.6988
    12.8563  14.5122

          k =-0.1500 0.3500 0.2500 (  5304 PWs)   bands (ev):

   -46.8910 -23.2576 -23.1417 -23.1277  -7.3112  -6.8456  -6.6382  -5.6362
    -5.6105  -5.5658  -5.4801  -5.3185   2.7975   5.6546   5.9413   6.3579
     6.8282   7.2309   8.0205   8.4843   8.8047   9.1948  12.3719  13.1842
    13.3187  14.1605

          k = 0.3500 0.1500 0.2500 (  5304 PWs)   bands (ev):

   -46.8910 -23.2285 -23.1557 -23.1417  -7.2694  -6.8300  -6.7738  -5.6403
    -5.6092  -5.5446  -5.4243  -5.3270   2.6680   5.8310   6.0497   6.2470
     6.8900   7.3504   8.1468   8.4692   8.8592   9.0298  12.5990  12.8516
    13.0634  14.4286

          k =-0.1500 0.4500 0.2500 (  5290 PWs)   bands (ev):

   -46.8909 -23.2661 -23.1413 -23.1274  -7.2610  -6.8374  -6.5954  -5.6384
    -5.6052  -5.5471  -5.4857  -5.3173   2.7249   5.4598   5.8540   6.2864
     6.8056   7.2064   7.9443   8.5149   8.8101   9.2125  12.3651  13.3839
    13.4935  14.0867

          k = 0.4500 0.1500 0.2500 (  5290 PWs)   bands (ev):

   -46.8909 -23.2281 -23.1640 -23.1414  -7.1958  -6.8110  -6.7918  -5.6387
    -5.6014  -5.5236  -5.3914  -5.3517   2.5676   5.6242   6.0403   6.2068
     6.8029   7.4387   8.0092   8.5113   8.8441   9.0310  12.6042  12.9944
    13.2519  14.4306

          k = 0.3500 0.1500 0.3500 (  5305 PWs)   bands (ev):

   -46.8908 -23.2279 -23.1552 -23.1551  -7.1680  -6.8145  -6.7936  -5.6330
    -5.5932  -5.5005  -5.3918  -5.3296   2.5150   5.7378   5.9237   6.1092
     6.6257   7.3191   8.2347   8.3898   8.7502   9.1073  12.7633  12.9423
    13.1458  14.6719

          k =-0.1500 0.4500 0.3500 (  5304 PWs)   bands (ev):

   -46.8906 -23.2654 -23.1547 -23.1269  -7.2106  -6.8050  -6.5802  -5.6330
    -5.5972  -5.5462  -5.4519  -5.2658   2.6799   5.3255   5.8831   6.0782
     6.2801   7.2645   8.0333   8.3390   8.6141   9.2724  12.6975  13.4115
    13.5300  14.6118

          k = 0.4500 0.1500 0.3500 (  5304 PWs)   bands (ev):

   -46.8906 -23.2275 -23.1634 -23.1548  -7.1111  -6.8081  -6.7957  -5.6292
    -5.5800  -5.4638  -5.3688  -5.3449   2.4187   5.5518   5.9553   6.0641
     6.4850   7.3735   8.1415   8.4155   8.5466   9.2293  12.8515  13.0428
    13.2632  14.8699

          k = 0.4500 0.1500 0.4500 (  5310 PWs)   bands (ev):

   -46.8904 -23.2271 -23.1630 -23.1630  -7.0727  -6.7951  -6.7940  -5.6247
    -5.5614  -5.4175  -5.3564  -5.3509   2.3217   5.4263   5.9550   6.1282
     6.2328   7.3896   8.0807   8.3351   8.3629   9.3924  13.0574  13.0970
    13.2877  14.8783

          k =-0.2500 0.3500 0.2500 (  5300 PWs)   bands (ev):

   -46.8908 -23.2569 -23.1412 -23.1411  -7.2097  -6.8578  -6.6560  -5.6239
    -5.6072  -5.5368  -5.4269  -5.2904   2.8028   5.6207   5.6338   6.0588
     6.6138   6.8848   8.2051   8.7131   8.9011   8.9632  12.4957  13.1923
    13.2585  14.4458

          k =-0.2500 0.4500 0.2500 (  5307 PWs)   bands (ev):

   -46.8906 -23.2655 -23.1408 -23.1407  -7.1678  -6.8608  -6.6079  -5.6239
    -5.5988  -5.5190  -5.4219  -5.2830   2.7770   5.4694   5.5042   5.9377
     6.5503   6.8589   8.0899   8.7382   8.8616   9.0125  12.5315  13.3839
    13.4093  14.5509

          k = 0.3500 0.2500 0.3500 (  5315 PWs)   bands (ev):

   -46.8905 -23.2418 -23.1546 -23.1545  -7.0745  -6.8416  -6.7750  -5.6107
    -5.5908  -5.4812  -5.3519  -5.2855   2.6749   5.5821   5.6369   5.7234
     6.4348   6.7524   8.0491   8.8004   8.8263   9.1206  12.7771  13.0661
    13.2222  14.8887

          k =-0.2500 0.4500 0.3500 (  5297 PWs)   bands (ev):

   -46.8903 -23.2648 -23.1541 -23.1403  -7.1027  -6.8514  -6.6185  -5.6110
    -5.5834  -5.4984  -5.3655  -5.2427   2.8206   5.2919   5.4226   5.6855
     6.1547   6.7716   7.8045   8.7789   8.8256   9.2329  12.8044  13.3585
    13.4512  15.0066

          k = 0.4500 0.2500 0.3500 (  5297 PWs)   bands (ev):

   -46.8903 -23.2414 -23.1628 -23.1542  -7.0123  -6.8289  -6.8039  -5.6066
    -5.5766  -5.4449  -5.3210  -5.2877   2.6252   5.4983   5.5506   5.6460
     6.2703   6.7725   7.7552   8.8292   8.8451   9.2302  12.9430  13.0764
    13.3296  15.2298

          k = 0.4500 0.2500 0.4500 (  5300 PWs)   bands (ev):

   -46.8902 -23.2410 -23.1625 -23.1624  -6.9470  -6.8347  -6.8266  -5.6017
    -5.5595  -5.3991  -5.2932  -5.2849   2.5771   5.3907   5.5800   5.5909
     6.0590   6.7252   7.3858   8.8713   8.8770   9.3863  13.1060  13.1578
    13.3434  15.5449

          k =-0.3500 0.4500 0.3500 (  5315 PWs)   bands (ev):

   -46.8901 -23.2641 -23.1536 -23.1536  -7.0051  -6.8828  -6.6526  -5.5863
    -5.5751  -5.4468  -5.2865  -5.2164   2.9628   5.1395   5.1775   5.4315
     6.0791   6.3640   7.2023   9.0936   9.1082   9.2654  13.0080  13.3840
    13.4292  15.4352

          k = 0.4500 0.3500 0.4500 (  5321 PWs)   bands (ev):

   -46.8899 -23.2548 -23.1619 -23.1619  -6.8948  -6.8726  -6.7790  -5.5787
    -5.5578  -5.3794  -5.2302  -5.2212   2.9022   5.1705   5.2133   5.3244
     6.0498   6.1831   6.6569   9.2164   9.2273   9.3805  13.2485  13.3145
    13.3898  15.9281

     the Fermi energy is     9.6545 ev

!    total energy              =    -364.96222746 Ry
     Harris-Foulkes estimate   =    -364.96222746 Ry
     estimated scf accuracy    <          6.0E-11 Ry

     The total energy is the sum of the following terms:

     one-electron contribution =     -92.75729035 Ry
     hartree contribution      =      74.66273040 Ry
     xc contribution           =     -85.76931962 Ry
     ewald contribution        =    -261.10462929 Ry
     smearing contrib. (-TS)   =       0.00628141 Ry

     convergence has been achieved in   9 iterations

     Forces acting on atoms (cartesian axes, Ry/au):

     atom    1 type  1   force =     0.00000000    0.00045918    0.00000000
     atom    2 type  2   force =     0.00000000   -0.00005100    0.00000000
     atom    3 type  3   force =     0.00000000    0.00018511    0.00000000
     atom    4 type  3   force =     0.00000000   -0.00077840    0.00000000
     atom    5 type  3   force =     0.00000000    0.00018511    0.00000000

     Total force =     0.000823     Total SCF correction =     0.000029


     Computing stress (Cartesian axis) and pressure

          total   stress  (Ry/bohr**3)                   (kbar)     P=  -21.29
  -0.00028896   0.00000000   0.00000000        -42.51      0.00      0.00
   0.00000000   0.00014373   0.00000000          0.00     21.14      0.00
   0.00000000   0.00000000  -0.00028896          0.00      0.00    -42.51


     bfgs converged in  21 scf cycles and  20 bfgs steps
     (criteria: energy <  1.0E-04 Ry, force <  1.0E-03 Ry/Bohr)

     End of BFGS Geometry Optimization

     Final energy   =    -364.9622274595 Ry
Begin final coordinates

ATOMIC_POSITIONS (crystal)
Pb       0.000000000   0.000000000   0.000000000    0   0   0
Ti       0.500000000   0.454280161   0.500000000
O        0.500000000   0.388010302   0.000000000
O        0.500000000  -0.104998223   0.500000000
O        0.000000000   0.388010302   0.500000000
End final coordinates



     Writing output data file PbTiO3.save/

     init_run     :     14.29s CPU     16.85s WALL (       1 calls)
     electrons    :   6155.79s CPU   8015.01s WALL (      21 calls)
     update_pot   :      7.85s CPU      8.11s WALL (      20 calls)
     forces       :    119.01s CPU    130.49s WALL (      21 calls)
     stress       :    301.79s CPU    325.81s WALL (      21 calls)

     Called by init_run:
     wfcinit      :     11.03s CPU     13.22s WALL (       1 calls)
     potinit      :      0.28s CPU      0.32s WALL (       1 calls)
     hinit0       :      2.15s CPU      2.16s WALL (       1 calls)

     Called by electrons:
     c_bands      :   5311.73s CPU   6791.17s WALL (     195 calls)
     sum_band     :    675.65s CPU    998.13s WALL (     195 calls)
     v_of_rho     :     44.09s CPU     46.78s WALL (     213 calls)
     newd         :    135.58s CPU    195.14s WALL (     213 calls)
     mix_rho      :      4.10s CPU      4.53s WALL (     195 calls)

     Called by c_bands:
     init_us_2    :     85.09s CPU    106.37s WALL (   32475 calls)
     cegterg      :   5068.85s CPU   6529.12s WALL (   14625 calls)

     Called by sum_band:
     sum_band:bec :      0.85s CPU      1.07s WALL (   14625 calls)
     addusdens    :    170.00s CPU    224.77s WALL (     195 calls)

     Called by *egterg:
     h_psi        :   2751.15s CPU   4035.56s WALL (   65308 calls)
     s_psi        :    526.72s CPU    571.02s WALL (   65308 calls)
     g_psi        :     50.32s CPU     59.75s WALL (   50608 calls)
     cdiaghg      :     95.33s CPU    114.71s WALL (   63508 calls)

     Called by h_psi:
     h_psi:pot    :   2730.43s CPU   4002.14s WALL (   65308 calls)
     h_psi:calbec :    519.90s CPU    567.45s WALL (   65308 calls)
     vloc_psi     :   1668.39s CPU   2864.10s WALL (   65308 calls)
     add_vuspsi   :    539.12s CPU    567.04s WALL (   65308 calls)

     General routines
     calbec       :    801.45s CPU    867.83s WALL (   87808 calls)
     fft          :     20.11s CPU     21.65s WALL (    3275 calls)
     ffts         :      0.56s CPU      0.76s WALL (     408 calls)
     fftw         :   1736.17s CPU   2991.21s WALL ( 2557502 calls)
     interpolate  :      1.78s CPU      2.17s WALL (     213 calls)

     Parallel routines

     PWSCF        :      1h50m CPU      2h21m WALL


   This run was terminated on:  23:35:26  14May2020            

=------------------------------------------------------------------------------=
   JOB DONE.
=------------------------------------------------------------------------------=
