
     Program PWSCF v.6.4.1 starts on 14May2020 at 11:36:23 

     This program is part of the open-source Quantum ESPRESSO suite
     for quantum simulation of materials; please cite
         "P. Giannozzi et al., J. Phys.:Condens. Matter 21 395502 (2009);
         "P. Giannozzi et al., J. Phys.:Condens. Matter 29 465901 (2017);
          URL http://www.quantum-espresso.org", 
     in publications or presentations arising from this work. More details at
     http://www.quantum-espresso.org/quote

     Parallel version (MPI), running on     1 processors

     MPI processes distributed on     1 nodes
     Reading input from PTO_7.4_10_0.548.pw.in
Warning: card  &CELL ignored
Warning: card   CELL_DYNAMICS = 'BFGS', ignored
Warning: card  / ignored

     Current dimensions of program PWSCF are:
     Max number of different atomic species (ntypx) = 10
     Max number of k-points (npk) =  40000
     Max angular momentum in pseudopotentials (lmaxx) =  3
     Message from routine read_upf::
     Pseudo file Pb.pbe-dn-rrkjus_psl.0.2.2.UPF has been fixed on the fly.
To avoid this message in the future, permanently fix 
 your pseudo files following these instructions: 
https://gitlab.com/QEF/q-e/blob/master/upftools/how_to_fix_upf.md
     Message from routine read_upf::
     Pseudo file O.pbe-n-rrkjus_psl.0.1.UPF has been fixed on the fly.
To avoid this message in the future, permanently fix 
 your pseudo files following these instructions: 
https://gitlab.com/QEF/q-e/blob/master/upftools/how_to_fix_upf.md
               file Pb.pbe-dn-rrkjus_psl.0.2.2.UPF: wavefunction(s)  6S renormalized

     Subspace diagonalization in iterative solution of the eigenvalue problem:
     a serial algorithm will be used


     G-vector sticks info
     --------------------
     sticks:   dense  smooth     PW     G-vecs:    dense   smooth      PW
     Sum        3505    1389    401               155139    39127    6031



     bravais-lattice index     =            1
     lattice parameter (alat)  =       7.4000  a.u.
     unit-cell volume          =     405.2240 (a.u.)^3
     number of atoms/cell      =            5
     number of atomic types    =            3
     number of electrons       =        44.00
     number of Kohn-Sham states=           26
     kinetic-energy cutoff     =      80.0000  Ry
     charge density cutoff     =     800.0000  Ry
     convergence threshold     =      1.0E-08
     mixing beta               =       0.7000
     number of iterations used =            8  plain     mixing
     Exchange-correlation      = PBE ( 1  4  3  4 0 0)
     nstep                     =           50


     celldm(1)=   7.400000  celldm(2)=   0.000000  celldm(3)=   0.000000
     celldm(4)=   0.000000  celldm(5)=   0.000000  celldm(6)=   0.000000

     crystal axes: (cart. coord. in units of alat)
               a(1) = (   1.000000   0.000000   0.000000 )  
               a(2) = (   0.000000   1.000000   0.000000 )  
               a(3) = (   0.000000   0.000000   1.000000 )  

     reciprocal axes: (cart. coord. in units 2 pi/alat)
               b(1) = (  1.000000  0.000000  0.000000 )  
               b(2) = (  0.000000  1.000000  0.000000 )  
               b(3) = (  0.000000  0.000000  1.000000 )  


     PseudoPot. # 1 for Pb read from file:
     ./Pb.pbe-dn-rrkjus_psl.0.2.2.UPF
     MD5 check sum: 7afc420059c37d6888fc09c0f121e83f
     Pseudo is Ultrasoft + core correction, Zval = 14.0
     Generated using "atomic" code by A. Dal Corso v.5.0.2 svn rev. 9415
     Using radial grid of 1281 points,  6 beta functions with: 
                l(1) =   0
                l(2) =   0
                l(3) =   1
                l(4) =   1
                l(5) =   2
                l(6) =   2
     Q(r) pseudized with 0 coefficients 


     PseudoPot. # 2 for Ti read from file:
     ./Ti.pbe-sp-van_ak.UPF
     MD5 check sum: 8e4df49b7f0d34bbd5052bf3f5ea0213
     Pseudo is Ultrasoft, Zval = 12.0
     Generated by new atomic code, or converted to UPF format
     Using radial grid of  851 points,  6 beta functions with: 
                l(1) =   0
                l(2) =   0
                l(3) =   1
                l(4) =   1
                l(5) =   2
                l(6) =   2
     Q(r) pseudized with  8 coefficients,  rinner =    1.000   1.000   1.000
                                                       1.000   1.000

     PseudoPot. # 3 for O  read from file:
     ./O.pbe-n-rrkjus_psl.0.1.UPF
     MD5 check sum: e057bbcf3229fb5d8c36c0c92f9568b4
     Pseudo is Ultrasoft + core correction, Zval =  6.0
     Generated using "atomic" code by A. Dal Corso v.5.0.2 svn rev. 9415
     Using radial grid of 1095 points,  4 beta functions with: 
                l(1) =   0
                l(2) =   0
                l(3) =   1
                l(4) =   1
     Q(r) pseudized with 0 coefficients 


     atomic species   valence    mass     pseudopotential
        Pb            14.00   207.20000     Pb( 1.00)
        Ti            12.00    47.87000     Ti( 1.00)
        O              6.00    16.00000     O ( 1.00)

      8 Sym. Ops. (no inversion) found



   Cartesian axes

     site n.     atom                  positions (alat units)
         1           Pb  tau(   1) = (   0.0000000   0.0000000   0.0000000  )
         2           Ti  tau(   2) = (   0.5000000   0.5480000   0.5000000  )
         3           O   tau(   3) = (   0.5000000   0.5000000   0.0000000  )
         4           O   tau(   4) = (   0.5000000   0.0000000   0.5000000  )
         5           O   tau(   5) = (   0.0000000   0.5000000   0.5000000  )

     number of k points=    75  Marzari-Vanderbilt smearing, width (Ry)=  0.0250
                       cart. coord. in units 2pi/alat
        k(    1) = (   0.0500000   0.0500000   0.0500000), wk =   0.0160000
        k(    2) = (   0.0500000   0.0500000   0.1500000), wk =   0.0320000
        k(    3) = (   0.0500000   0.0500000   0.2500000), wk =   0.0320000
        k(    4) = (   0.0500000   0.0500000   0.3500000), wk =   0.0320000
        k(    5) = (   0.0500000   0.0500000   0.4500000), wk =   0.0320000
        k(    6) = (   0.0500000   0.1500000   0.1500000), wk =   0.0320000
        k(    7) = (   0.0500000   0.1500000   0.2500000), wk =   0.0320000
        k(    8) = (   0.0500000   0.1500000   0.3500000), wk =   0.0320000
        k(    9) = (   0.0500000   0.1500000   0.4500000), wk =   0.0320000
        k(   10) = (   0.0500000   0.2500000   0.2500000), wk =   0.0320000
        k(   11) = (   0.0500000   0.2500000   0.3500000), wk =   0.0320000
        k(   12) = (   0.0500000   0.2500000   0.4500000), wk =   0.0320000
        k(   13) = (   0.0500000   0.3500000   0.3500000), wk =   0.0320000
        k(   14) = (   0.0500000   0.3500000   0.4500000), wk =   0.0320000
        k(   15) = (   0.0500000   0.4500000   0.4500000), wk =   0.0320000
        k(   16) = (   0.1500000   0.1500000   0.1500000), wk =   0.0160000
        k(   17) = (   0.1500000   0.1500000   0.2500000), wk =   0.0320000
        k(   18) = (   0.1500000   0.1500000   0.3500000), wk =   0.0320000
        k(   19) = (   0.1500000   0.1500000   0.4500000), wk =   0.0320000
        k(   20) = (   0.1500000   0.2500000   0.2500000), wk =   0.0320000
        k(   21) = (   0.1500000   0.2500000   0.3500000), wk =   0.0320000
        k(   22) = (   0.1500000   0.2500000   0.4500000), wk =   0.0320000
        k(   23) = (   0.1500000   0.3500000   0.3500000), wk =   0.0320000
        k(   24) = (   0.1500000   0.3500000   0.4500000), wk =   0.0320000
        k(   25) = (   0.1500000   0.4500000   0.4500000), wk =   0.0320000
        k(   26) = (   0.2500000   0.2500000   0.2500000), wk =   0.0160000
        k(   27) = (   0.2500000   0.2500000   0.3500000), wk =   0.0320000
        k(   28) = (   0.2500000   0.2500000   0.4500000), wk =   0.0320000
        k(   29) = (   0.2500000   0.3500000   0.3500000), wk =   0.0320000
        k(   30) = (   0.2500000   0.3500000   0.4500000), wk =   0.0320000
        k(   31) = (   0.2500000   0.4500000   0.4500000), wk =   0.0320000
        k(   32) = (   0.3500000   0.3500000   0.3500000), wk =   0.0160000
        k(   33) = (   0.3500000   0.3500000   0.4500000), wk =   0.0320000
        k(   34) = (   0.3500000   0.4500000   0.4500000), wk =   0.0320000
        k(   35) = (   0.4500000   0.4500000   0.4500000), wk =   0.0160000
        k(   36) = (  -0.0500000   0.1500000   0.0500000), wk =   0.0160000
        k(   37) = (  -0.0500000   0.2500000   0.0500000), wk =   0.0160000
        k(   38) = (  -0.0500000   0.3500000   0.0500000), wk =   0.0160000
        k(   39) = (  -0.0500000   0.4500000   0.0500000), wk =   0.0160000
        k(   40) = (   0.1500000   0.0500000   0.1500000), wk =   0.0160000
        k(   41) = (  -0.0500000   0.2500000   0.1500000), wk =   0.0320000
        k(   42) = (   0.2500000   0.0500000   0.1500000), wk =   0.0320000
        k(   43) = (  -0.0500000   0.3500000   0.1500000), wk =   0.0320000
        k(   44) = (   0.3500000   0.0500000   0.1500000), wk =   0.0320000
        k(   45) = (  -0.0500000   0.4500000   0.1500000), wk =   0.0320000
        k(   46) = (   0.4500000   0.0500000   0.1500000), wk =   0.0320000
        k(   47) = (   0.2500000   0.0500000   0.2500000), wk =   0.0160000
        k(   48) = (  -0.0500000   0.3500000   0.2500000), wk =   0.0320000
        k(   49) = (   0.3500000   0.0500000   0.2500000), wk =   0.0320000
        k(   50) = (  -0.0500000   0.4500000   0.2500000), wk =   0.0320000
        k(   51) = (   0.4500000   0.0500000   0.2500000), wk =   0.0320000
        k(   52) = (   0.3500000   0.0500000   0.3500000), wk =   0.0160000
        k(   53) = (  -0.0500000   0.4500000   0.3500000), wk =   0.0320000
        k(   54) = (   0.4500000   0.0500000   0.3500000), wk =   0.0320000
        k(   55) = (   0.4500000   0.0500000   0.4500000), wk =   0.0160000
        k(   56) = (  -0.1500000   0.2500000   0.1500000), wk =   0.0160000
        k(   57) = (  -0.1500000   0.3500000   0.1500000), wk =   0.0160000
        k(   58) = (  -0.1500000   0.4500000   0.1500000), wk =   0.0160000
        k(   59) = (   0.2500000   0.1500000   0.2500000), wk =   0.0160000
        k(   60) = (  -0.1500000   0.3500000   0.2500000), wk =   0.0320000
        k(   61) = (   0.3500000   0.1500000   0.2500000), wk =   0.0320000
        k(   62) = (  -0.1500000   0.4500000   0.2500000), wk =   0.0320000
        k(   63) = (   0.4500000   0.1500000   0.2500000), wk =   0.0320000
        k(   64) = (   0.3500000   0.1500000   0.3500000), wk =   0.0160000
        k(   65) = (  -0.1500000   0.4500000   0.3500000), wk =   0.0320000
        k(   66) = (   0.4500000   0.1500000   0.3500000), wk =   0.0320000
        k(   67) = (   0.4500000   0.1500000   0.4500000), wk =   0.0160000
        k(   68) = (  -0.2500000   0.3500000   0.2500000), wk =   0.0160000
        k(   69) = (  -0.2500000   0.4500000   0.2500000), wk =   0.0160000
        k(   70) = (   0.3500000   0.2500000   0.3500000), wk =   0.0160000
        k(   71) = (  -0.2500000   0.4500000   0.3500000), wk =   0.0320000
        k(   72) = (   0.4500000   0.2500000   0.3500000), wk =   0.0320000
        k(   73) = (   0.4500000   0.2500000   0.4500000), wk =   0.0160000
        k(   74) = (  -0.3500000   0.4500000   0.3500000), wk =   0.0160000
        k(   75) = (   0.4500000   0.3500000   0.4500000), wk =   0.0160000

     Dense  grid:   155139 G-vectors     FFT dimensions: (  72,  72,  72)

     Smooth grid:    39127 G-vectors     FFT dimensions: (  45,  45,  45)

     Estimated max dynamical RAM per process >     734.65 MB

     Check: negative core charge=   -0.000005

     Initial potential from superposition of free atoms

     starting charge   42.99760, renormalised to   44.00000
     Starting wfcs are   31 randomized atomic wfcs

     total cpu time spent up to now is       16.1 secs

     Self-consistent Calculation

     iteration #  1     ecut=    80.00 Ry     beta= 0.70
     Davidson diagonalization with overlap
     ethr =  1.00E-02,  avg # of iterations =  2.0

     total cpu time spent up to now is       46.4 secs

     total energy              =    -364.41285424 Ry
     Harris-Foulkes estimate   =    -365.28316206 Ry
     estimated scf accuracy    <       1.09411835 Ry

     iteration #  2     ecut=    80.00 Ry     beta= 0.70
     Davidson diagonalization with overlap
     ethr =  2.49E-03,  avg # of iterations =  4.1

     total cpu time spent up to now is       90.0 secs

     total energy              =    -363.65428032 Ry
     Harris-Foulkes estimate   =    -365.64090829 Ry
     estimated scf accuracy    <       6.55661908 Ry

     iteration #  3     ecut=    80.00 Ry     beta= 0.70
     Davidson diagonalization with overlap
     ethr =  2.49E-03,  avg # of iterations =  4.7

     total cpu time spent up to now is      133.0 secs

     total energy              =    -364.92310842 Ry
     Harris-Foulkes estimate   =    -365.07681869 Ry
     estimated scf accuracy    <       0.41541749 Ry

     iteration #  4     ecut=    80.00 Ry     beta= 0.70
     Davidson diagonalization with overlap
     ethr =  9.44E-04,  avg # of iterations =  3.6

     total cpu time spent up to now is      163.4 secs

     total energy              =    -364.91736805 Ry
     Harris-Foulkes estimate   =    -364.95544650 Ry
     estimated scf accuracy    <       0.11977165 Ry

     iteration #  5     ecut=    80.00 Ry     beta= 0.70
     Davidson diagonalization with overlap
     ethr =  2.72E-04,  avg # of iterations =  4.1

     total cpu time spent up to now is      201.4 secs

     total energy              =    -364.94808920 Ry
     Harris-Foulkes estimate   =    -364.94882578 Ry
     estimated scf accuracy    <       0.00299523 Ry

     iteration #  6     ecut=    80.00 Ry     beta= 0.70
     Davidson diagonalization with overlap
     ethr =  6.81E-06,  avg # of iterations =  4.2

     total cpu time spent up to now is      242.3 secs

     total energy              =    -364.94855166 Ry
     Harris-Foulkes estimate   =    -364.94920868 Ry
     estimated scf accuracy    <       0.00300194 Ry

     iteration #  7     ecut=    80.00 Ry     beta= 0.70
     Davidson diagonalization with overlap
     ethr =  6.81E-06,  avg # of iterations =  1.9

     total cpu time spent up to now is      270.0 secs

     total energy              =    -364.94847598 Ry
     Harris-Foulkes estimate   =    -364.94876184 Ry
     estimated scf accuracy    <       0.00065637 Ry

     iteration #  8     ecut=    80.00 Ry     beta= 0.70
     Davidson diagonalization with overlap
     ethr =  1.49E-06,  avg # of iterations =  3.9

     total cpu time spent up to now is      304.8 secs

     total energy              =    -364.94867184 Ry
     Harris-Foulkes estimate   =    -364.94869943 Ry
     estimated scf accuracy    <       0.00011402 Ry

     iteration #  9     ecut=    80.00 Ry     beta= 0.70
     Davidson diagonalization with overlap
     ethr =  2.59E-07,  avg # of iterations =  1.3

     total cpu time spent up to now is      332.2 secs

     total energy              =    -364.94867229 Ry
     Harris-Foulkes estimate   =    -364.94868042 Ry
     estimated scf accuracy    <       0.00002474 Ry

     iteration # 10     ecut=    80.00 Ry     beta= 0.70
     Davidson diagonalization with overlap
     ethr =  5.62E-08,  avg # of iterations =  3.1

     total cpu time spent up to now is      364.9 secs

     total energy              =    -364.94867970 Ry
     Harris-Foulkes estimate   =    -364.94867985 Ry
     estimated scf accuracy    <       0.00000113 Ry

     iteration # 11     ecut=    80.00 Ry     beta= 0.70
     Davidson diagonalization with overlap
     ethr =  2.58E-09,  avg # of iterations =  2.7

     total cpu time spent up to now is      397.9 secs

     total energy              =    -364.94867971 Ry
     Harris-Foulkes estimate   =    -364.94867987 Ry
     estimated scf accuracy    <       0.00000062 Ry

     iteration # 12     ecut=    80.00 Ry     beta= 0.70
     Davidson diagonalization with overlap
     ethr =  1.41E-09,  avg # of iterations =  2.6

     total cpu time spent up to now is      426.8 secs

     total energy              =    -364.94867976 Ry
     Harris-Foulkes estimate   =    -364.94867977 Ry
     estimated scf accuracy    <       0.00000005 Ry

     iteration # 13     ecut=    80.00 Ry     beta= 0.70
     Davidson diagonalization with overlap
     ethr =  1.04E-10,  avg # of iterations =  3.2

     total cpu time spent up to now is      465.6 secs

     End of self-consistent calculation

          k = 0.0500 0.0500 0.0500 (  4915 PWs)   bands (ev):

   -45.3480 -21.7392 -21.6149 -21.6148  -6.8361  -5.7814  -5.6623  -4.4312
    -4.4116  -4.4112  -4.2731  -4.2600   5.0924   7.2639   7.3170   7.4874
     9.2298   9.2545   9.6566   9.8053  10.0735  10.0821  13.1665  13.6746
    13.6835  15.5482

          k = 0.0500 0.0500 0.1500 (  4895 PWs)   bands (ev):

   -45.3477 -21.7387 -21.6276 -21.6144  -6.7486  -5.7445  -5.6284  -4.4403
    -4.4208  -4.4108  -4.3061  -4.2569   4.7492   7.3232   7.4036   7.6967
     9.0265   9.1952   9.6226   9.6888   9.9236  10.0684  13.5022  13.6838
    13.7740  15.7577

          k = 0.0500 0.0500 0.2500 (  4900 PWs)   bands (ev):

   -45.3473 -21.7379 -21.6482 -21.6136  -6.6029  -5.6796  -5.5738  -4.4555
    -4.4360  -4.4098  -4.3661  -4.2492   4.3379   7.3620   7.5057   7.6894
     8.9238   9.0014   9.5422   9.6065   9.8482  10.1463  13.6840  13.9914
    14.1120  15.7538

          k = 0.0500 0.0500 0.3500 (  4901 PWs)   bands (ev):

   -45.3469 -21.7371 -21.6687 -21.6129  -6.4516  -5.6048  -5.5224  -4.4779
    -4.4537  -4.4220  -4.4088  -4.2435   4.0234   7.0070   7.6804   7.8320
     8.6565   8.7771   9.4549   9.5377   9.9465  10.5719  13.6842  14.4350
    14.5322  14.9855

          k = 0.0500 0.0500 0.4500 (  4915 PWs)   bands (ev):

   -45.3466 -21.7366 -21.6813 -21.6124  -6.3548  -5.5479  -5.4969  -4.5082
    -4.4660  -4.4423  -4.4082  -4.2412   3.8623   6.7098   7.8511   8.0750
     8.3794   8.5048   9.4156   9.5308   9.9977  11.0576  13.6672  14.2384
    14.6979  14.8222

          k = 0.0500 0.1500 0.1500 (  4904 PWs)   bands (ev):

   -45.3475 -21.7518 -21.6271 -21.6139  -6.6475  -5.7184  -5.5990  -4.4406
    -4.4336  -4.4190  -4.2967  -4.2774   4.4970   7.2788   7.3789   7.8922
     8.8026   9.0244   9.4709   9.7254   9.8850  10.1620  13.5021  13.9453
    14.0146  15.8689

          k = 0.0500 0.1500 0.2500 (  4901 PWs)   bands (ev):

   -45.3470 -21.7509 -21.6476 -21.6131  -6.5064  -5.6626  -5.5505  -4.4602
    -4.4449  -4.4184  -4.3286  -4.2664   4.1695   7.2457   7.5005   7.8003
     8.6679   8.8644   9.3396   9.6281   9.7737  10.3436  13.9251  14.0087
    14.2931  15.8869

          k = 0.0500 0.1500 0.3500 (  4907 PWs)   bands (ev):

   -45.3466 -21.7501 -21.6681 -21.6123  -6.3622  -5.6066  -5.4960  -4.4822
    -4.4559  -4.4179  -4.3570  -4.2603   3.8993   6.9836   7.6110   7.8159
     8.4270   8.7038   9.3025   9.5996   9.7546  10.6294  13.9368  14.4281
    14.6572  15.1587

          k = 0.0500 0.1500 0.4500 (  4905 PWs)   bands (ev):

   -45.3463 -21.7495 -21.6806 -21.6119  -6.2717  -5.5719  -5.4584  -4.4990
    -4.4656  -4.4175  -4.3665  -4.2610   3.7555   6.7131   7.7042   7.9910
     8.2607   8.4422   9.3307   9.6596   9.7251  10.8606  13.9151  14.6408
    14.6928  14.9160

          k = 0.0500 0.2500 0.2500 (  4904 PWs)   bands (ev):

   -45.3466 -21.7719 -21.6467 -21.6123  -6.3495  -5.6365  -5.5035  -4.4657
    -4.4492  -4.4281  -4.2994  -4.2816   3.9161   7.0987   7.5251   7.6879
     8.4538   8.5853   9.0875   9.6149   9.9622  10.5145  13.9701  14.3568
    14.5817  15.7923

          k = 0.0500 0.2500 0.3500 (  4893 PWs)   bands (ev):

   -45.3462 -21.7709 -21.6670 -21.6115  -6.2278  -5.6003  -5.4378  -4.4765
    -4.4549  -4.4294  -4.3096  -4.2579   3.7043   6.9335   7.4284   7.7125
     8.2126   8.5742   8.9896   9.4280  10.0816  10.5415  14.3175  14.4291
    14.8508  15.4716

          k = 0.0500 0.2500 0.4500 (  4894 PWs)   bands (ev):

   -45.3459 -21.7703 -21.6795 -21.6110  -6.1582  -5.5758  -5.3881  -4.4837
    -4.4640  -4.4304  -4.3011  -4.2539   3.5854   6.7099   7.4458   7.7011
     8.1177   8.5588   8.9554   9.4036  10.1155  10.5149  14.3253  14.6617
    15.0563  15.2709

          k = 0.0500 0.3500 0.3500 (  4912 PWs)   bands (ev):

   -45.3457 -21.7916 -21.6660 -21.6107  -6.1204  -5.5543  -5.3734  -4.4752
    -4.4576  -4.4341  -4.3312  -4.1956   3.5177   6.7396   7.1601   7.6920
     8.1127   8.4375   8.8658   9.3800  10.1458  10.5160  14.3790  14.7449
    15.0495  15.8090

          k = 0.0500 0.3500 0.4500 (  4887 PWs)   bands (ev):

   -45.3455 -21.7909 -21.6785 -21.6102  -6.0883  -5.5175  -5.3107  -4.4764
    -4.4626  -4.4370  -4.3391  -4.1581   3.4199   6.6361   6.9980   7.7624
     7.9207   8.6116   8.7690   9.2587   9.9919  10.5598  14.6277  14.7396
    15.2228  15.8602

          k = 0.0500 0.4500 0.4500 (  4878 PWs)   bands (ev):

   -45.3452 -21.8036 -21.6778 -21.6097  -6.0702  -5.4470  -5.2586  -4.4791
    -4.4620  -4.4389  -4.3625  -4.1022   3.3201   6.4367   6.8781   7.7338
     7.8985   8.5297   8.8301   9.1992   9.6831  10.7431  14.6079  14.9906
    15.3367  16.2547

          k = 0.1500 0.1500 0.1500 (  4893 PWs)   bands (ev):

   -45.3472 -21.7513 -21.6268 -21.6264  -6.5652  -5.6907  -5.5721  -4.4505
    -4.4397  -4.4194  -4.2911  -4.2792   4.3320   7.2326   7.3004   8.0107
     8.6554   8.8179   9.4276   9.7927   9.9668  10.0498  13.7404  13.9940
    14.0308  16.3723

          k = 0.1500 0.1500 0.2500 (  4894 PWs)   bands (ev):

   -45.3468 -21.7504 -21.6471 -21.6258  -6.4322  -5.6446  -5.5251  -4.4672
    -4.4414  -4.4161  -4.3092  -4.2662   4.0821   7.1853   7.2769   7.8279
     8.4425   8.6496   9.4678   9.7368   9.8907  10.2502  13.9538  14.1382
    14.2871  15.8972

          k = 0.1500 0.1500 0.3500 (  4896 PWs)   bands (ev):

   -45.3463 -21.7496 -21.6675 -21.6250  -6.3011  -5.5967  -5.4717  -4.4815
    -4.4332  -4.4109  -4.3348  -4.2601   3.8567   6.9778   7.2640   7.6594
     8.2624   8.7002   9.2263   9.7755   9.9015  10.4960  13.8932  14.4783
    14.6464  15.3697

          k = 0.1500 0.1500 0.4500 (  4910 PWs)   bands (ev):

   -45.3461 -21.7490 -21.6800 -21.6245  -6.2222  -5.5665  -5.4337  -4.4870
    -4.4264  -4.4051  -4.3528  -4.2623   3.7307   6.7198   7.2461   7.6949
     8.1872   8.8102   8.9690   9.8474   9.8872  10.6267  13.8219  14.7059
    14.8985  15.1170

          k = 0.1500 0.2500 0.2500 (  4902 PWs)   bands (ev):

   -45.3463 -21.7713 -21.6462 -21.6249  -6.2720  -5.6244  -5.5043  -4.4695
    -4.4519  -4.4028  -4.2798  -4.2626   3.9079   7.0154   7.1333   7.6487
     8.1521   8.4874   9.3785   9.7953  10.0097  10.3535  14.0055  14.3420
    14.5303  15.6971

          k = 0.1500 0.2500 0.3500 (  4898 PWs)   bands (ev):

   -45.3459 -21.7704 -21.6665 -21.6241  -6.1551  -5.6061  -5.4453  -4.4728
    -4.4400  -4.3931  -4.2827  -4.2413   3.7498   6.8915   7.0793   7.3734
     7.8519   8.5438   9.4447   9.5921  10.0981  10.3468  14.1420  14.4581
    14.7863  15.6566

          k = 0.1500 0.2500 0.4500 (  4893 PWs)   bands (ev):

   -45.3456 -21.7698 -21.6790 -21.6236  -6.0894  -5.5977  -5.3962  -4.4713
    -4.4288  -4.3917  -4.2748  -4.2400   3.6544   6.7071   7.0354   7.2697
     7.7733   8.6440   9.2542   9.6772  10.0770  10.2936  14.1568  14.6434
    14.9974  15.6849

          k = 0.1500 0.3500 0.3500 (  4899 PWs)   bands (ev):

   -45.3455 -21.7910 -21.6655 -21.6233  -6.0336  -5.5809  -5.4171  -4.4689
    -4.4327  -4.3711  -4.2895  -4.1796   3.6265   6.6826   6.9950   7.1304
     7.5332   8.5188   9.3038   9.6398   9.9720  10.4392  14.2800  14.6478
    14.9596  15.9779

          k = 0.1500 0.3500 0.4500 (  4904 PWs)   bands (ev):

   -45.3452 -21.7904 -21.6779 -21.6228  -6.0005  -5.5682  -5.3587  -4.4640
    -4.4113  -4.3768  -4.2925  -4.1422   3.5592   6.6111   6.9036   7.0447
     7.3288   8.5931   9.3046   9.5171   9.7359  10.5422  14.5318  14.6438
    15.1193  16.2032

          k = 0.1500 0.4500 0.4500 (  4888 PWs)   bands (ev):

   -45.3450 -21.8031 -21.6773 -21.6222  -5.9776  -5.5099  -5.3364  -4.4609
    -4.3907  -4.3568  -4.3211  -4.0848   3.4926   6.4061   6.8282   7.0403
     7.1679   8.5972   9.0768   9.4232   9.6473  10.7193  14.5943  14.8569
    15.2214  16.5481

          k = 0.2500 0.2500 0.2500 (  4902 PWs)   bands (ev):

   -45.3459 -21.7704 -21.6455 -21.6451  -6.1561  -5.6032  -5.4950  -4.4570
    -4.4526  -4.3706  -4.2563  -4.2342   3.8717   6.7977   6.9001   7.4910
     7.9402   8.0489   9.5964  10.0371  10.0838  10.1742  13.9982  14.4976
    14.5047  15.7312

          k = 0.2500 0.2500 0.3500 (  4905 PWs)   bands (ev):

   -45.3455 -21.7695 -21.6656 -21.6444  -6.0588  -5.5894  -5.4556  -4.4505
    -4.4338  -4.3328  -4.2388  -4.2147   3.8087   6.6563   6.7457   7.1408
     7.6671   8.0160   9.5110   9.9621  10.0779  10.3286  14.0763  14.5515
    14.7730  15.9436

          k = 0.2500 0.2500 0.4500 (  4887 PWs)   bands (ev):

   -45.3452 -21.7689 -21.6780 -21.6439  -6.0110  -5.5878  -5.4099  -4.4454
    -4.4202  -4.2958  -4.2333  -4.2119   3.7591   6.5546   6.6919   6.8646
     7.6065   8.0579   9.2919   9.9840  10.0293  10.3881  14.2020  14.6330
    14.9816  16.1928

          k = 0.2500 0.3500 0.3500 (  4892 PWs)   bands (ev):

   -45.3451 -21.7902 -21.6646 -21.6436  -5.9065  -5.6054  -5.4772  -4.4417
    -4.4124  -4.2897  -4.2121  -4.1488   3.8144   6.3967   6.5699   6.9188
     7.3325   7.8934   9.0493  10.0383  10.2454  10.4240  14.2397  14.7002
    14.9096  16.2927

          k = 0.2500 0.3500 0.4500 (  4891 PWs)   bands (ev):

   -45.3448 -21.7896 -21.6770 -21.6430  -5.8727  -5.6209  -5.4261  -4.4339
    -4.3930  -4.2627  -4.2011  -4.1118   3.8177   6.3921   6.4346   6.7101
     7.1376   7.9214   8.6885  10.0522  10.2334  10.5429  14.5041  14.6829
    15.0635  16.6384

          k = 0.2500 0.4500 0.4500 (  4873 PWs)   bands (ev):

   -45.3445 -21.8022 -21.6764 -21.6425  -5.8275  -5.5943  -5.4367  -4.4288
    -4.3716  -4.2404  -4.1840  -4.0518   3.8337   6.2038   6.4675   6.5582
     6.9339   7.8964   8.2128  10.0471  10.2796  10.6983  14.6584  14.8289
    15.1562  16.9826

          k = 0.3500 0.3500 0.3500 (  4890 PWs)   bands (ev):

   -45.3446 -21.7892 -21.6638 -21.6636  -5.8270  -5.5913  -5.5132  -4.4132
    -4.3985  -4.2117  -4.1390  -4.1100   4.0127   6.1188   6.2320   6.7879
     7.2947   7.3418   8.3905  10.3209  10.4192  10.5732  14.4174  14.8834
    14.8868  16.6755

          k = 0.3500 0.3500 0.4500 (  4875 PWs)   bands (ev):

   -45.3444 -21.7887 -21.6761 -21.6632  -5.8140  -5.5921  -5.4845  -4.4015
    -4.3853  -4.1566  -4.1102  -4.0755   4.1333   6.0155   6.0767   6.6136
     7.1021   7.3330   7.8872  10.3758  10.4979  10.6944  14.6679  14.8347
    15.0565  17.0626

          k = 0.3500 0.4500 0.4500 (  4847 PWs)   bands (ev):

   -45.3441 -21.8013 -21.6756 -21.6626  -5.6991  -5.6429  -5.5186  -4.3970
    -4.3667  -4.1262  -4.0588  -4.0114   4.3242   5.8434   6.0102   6.4503
     6.9075   7.2203   7.3107  10.4745  10.6717  10.6966  14.8433  14.9574
    15.1282  17.4349

          k = 0.4500 0.4500 0.4500 (  4836 PWs)   bands (ev):

   -45.3438 -21.8008 -21.6750 -21.6750  -5.7171  -5.5751  -5.5594  -4.3792
    -4.3626  -4.0580  -3.9877  -3.9815   4.8524   5.6553   5.7463   6.3653
     6.4300   6.8861   7.0073  10.6654  10.6784  10.8643  15.0297  15.1055
    15.1071  17.8009

          k =-0.0500 0.1500 0.0500 (  4895 PWs)   bands (ev):

   -45.3477 -21.7523 -21.6144 -21.6143  -6.7331  -5.7526  -5.6267  -4.4306
    -4.4222  -4.4192  -4.2979  -4.2671   4.7399   7.3089   7.3141   7.7167
     9.0475   9.0695   9.6440   9.6498  10.0977  10.1117  13.1680  13.9345
    13.9525  15.5504

          k =-0.0500 0.2500 0.0500 (  4900 PWs)   bands (ev):

   -45.3473 -21.7734 -21.6136 -21.6135  -6.5579  -5.7092  -5.5641  -4.4425
    -4.4313  -4.4291  -4.3613  -4.2590   4.3104   7.3040   7.3819   7.6121
     8.8080   8.8205   9.5940   9.7815  10.1629  10.2480  13.1703  14.3389
    14.3650  15.5545

          k =-0.0500 0.3500 0.0500 (  4901 PWs)   bands (ev):

   -45.3469 -21.7943 -21.6128 -21.6127  -6.3681  -5.6732  -5.4932  -4.4781
    -4.4414  -4.4283  -4.4176  -4.2533   3.9760   6.9306   7.4552   7.6105
     8.5945   8.6053   9.5326  10.0144  10.2181  10.6827  13.1714  14.7304
    14.7608  15.0834

          k =-0.0500 0.4500 0.0500 (  4915 PWs)   bands (ev):

   -45.3466 -21.8072 -21.6123 -21.6122  -6.2395  -5.6583  -5.4435  -4.5191
    -4.4471  -4.4392  -4.4277  -4.2510   3.8019   6.6037   7.5004   7.6831
     8.4498   8.4924   9.4926  10.1014  10.2545  11.1854  13.1691  14.3061
    14.9676  15.0057

          k = 0.1500 0.0500 0.1500 (  4904 PWs)   bands (ev):

   -45.3475 -21.7382 -21.6273 -21.6269  -6.6656  -5.7136  -5.5929  -4.4497
    -4.4212  -4.4184  -4.3054  -4.2715   4.5094   7.2698   7.4701   7.8657
     8.8327   8.9764   9.5259   9.7052   9.9280  10.0939  13.7143  13.7862
    13.8099  16.1127

          k =-0.0500 0.2500 0.1500 (  4901 PWs)   bands (ev):

   -45.3470 -21.7728 -21.6263 -21.6131  -6.4774  -5.6785  -5.5474  -4.4570
    -4.4388  -4.4286  -4.3234  -4.2750   4.1520   7.1807   7.4245   7.7889
     8.5467   8.8013   9.3793   9.7623   9.9420  10.3953  13.4999  14.3440
    14.3949  15.8877

          k = 0.2500 0.0500 0.1500 (  4901 PWs)   bands (ev):

   -45.3470 -21.7374 -21.6477 -21.6263  -6.5305  -5.6572  -5.5357  -4.4629
    -4.4323  -4.4185  -4.3379  -4.2685   4.1830   7.2640   7.5256   7.7916
     8.6315   8.7358   9.4403   9.7164   9.9273  10.2249  13.7589  14.0910
    14.1869  16.0824

          k =-0.0500 0.3500 0.1500 (  4907 PWs)   bands (ev):

   -45.3466 -21.7937 -21.6254 -21.6123  -6.2973  -5.6420  -5.4903  -4.4855
    -4.4393  -4.4354  -4.3544  -4.2691   3.8625   6.8708   7.4127   7.7379
     8.3518   8.6132   9.4726   9.7532  10.0049  10.7401  13.4911  14.7227
    14.7663  15.2708

          k = 0.3500 0.0500 0.1500 (  4907 PWs)   bands (ev):

   -45.3466 -21.7366 -21.6681 -21.6255  -6.3957  -5.5870  -5.4815  -4.4806
    -4.4395  -4.4179  -4.3780  -4.2627   3.9120   7.0056   7.5329   7.8629
     8.3826   8.7245   9.1414   9.7568   9.9700  10.5781  13.7370  14.4942
    14.5832  15.2072

          k =-0.0500 0.4500 0.1500 (  4905 PWs)   bands (ev):

   -45.3463 -21.8065 -21.6249 -21.6118  -6.1796  -5.6213  -5.4523  -4.5095
    -4.4440  -4.4367  -4.3649  -4.2698   3.7057   6.5721   7.3989   7.8162
     8.2284   8.4956   9.5705   9.7312  10.0447  11.0081  13.4759  14.7081
    14.9753  15.0271

          k = 0.4500 0.0500 0.1500 (  4905 PWs)   bands (ev):

   -45.3463 -21.7361 -21.6806 -21.6250  -6.3135  -5.5293  -5.4550  -4.4975
    -4.4442  -4.4175  -4.3970  -4.2620   3.7672   6.7193   7.6149   7.9634
     8.3265   8.5413   9.0429   9.7403  10.0093  10.8854  13.6894  14.6854
    14.7572  14.8491

          k = 0.2500 0.0500 0.2500 (  4904 PWs)   bands (ev):

   -45.3466 -21.7366 -21.6471 -21.6465  -6.4203  -5.6071  -5.4731  -4.4630
    -4.4347  -4.4260  -4.3078  -4.2968   3.9483   7.2071   7.5009   7.7515
     8.2960   8.4454   9.4429   9.6030  10.1240  10.3042  14.0083  14.1512
    14.4645  15.8684

          k =-0.0500 0.3500 0.2500 (  4893 PWs)   bands (ev):

   -45.3462 -21.7926 -21.6458 -21.6115  -6.1965  -5.5994  -5.4511  -4.4783
    -4.4509  -4.4344  -4.3108  -4.2598   3.6852   6.8026   7.4382   7.6242
     8.2611   8.5069   8.9915   9.6566  10.0388  10.6433  13.9553  14.7470
    14.8572  15.5687

          k = 0.3500 0.0500 0.2500 (  4893 PWs)   bands (ev):

   -45.3462 -21.7358 -21.6671 -21.6459  -6.3227  -5.5315  -5.4123  -4.4687
    -4.4380  -4.4280  -4.3199  -4.2866   3.7344   7.0081   7.3659   7.7125
     8.1363   8.4402   9.1267   9.6682  10.1757  10.4930  14.0331  14.5001
    14.7566  15.5213

          k =-0.0500 0.4500 0.2500 (  4894 PWs)   bands (ev):

   -45.3459 -21.8054 -21.6452 -21.6110  -6.1087  -5.5605  -5.4205  -4.4923
    -4.4502  -4.4419  -4.3068  -4.2527   3.5534   6.5239   7.3924   7.6168
     8.1962   8.4560   9.0141   9.6967  10.0244  10.7017  13.9425  14.9853
    15.0143  15.4508

          k = 0.4500 0.0500 0.2500 (  4894 PWs)   bands (ev):

   -45.3459 -21.7353 -21.6796 -21.6453  -6.2706  -5.4620  -5.3824  -4.4783
    -4.4420  -4.4307  -4.3103  -4.2910   3.6130   6.7303   7.4390   7.5750
     8.1838   8.5518   8.8184   9.7453  10.1220  10.6321  14.0089  14.7694
    14.9568  15.3029

          k = 0.3500 0.0500 0.3500 (  4912 PWs)   bands (ev):

   -45.3457 -21.7350 -21.6663 -21.6659  -6.2737  -5.4375  -5.3410  -4.4622
    -4.4433  -4.4279  -4.3353  -4.2440   3.5624   6.9635   7.0722   7.6529
     7.8299   8.4860   9.1181   9.4236  10.2184  10.5594  14.3860  14.5434
    14.9524  15.7888

          k =-0.0500 0.4500 0.3500 (  4887 PWs)   bands (ev):

   -45.3455 -21.8043 -21.6654 -21.6102  -6.0750  -5.4937  -5.3342  -4.4811
    -4.4584  -4.4399  -4.3417  -4.1571   3.4071   6.4788   7.1160   7.6145
     8.1279   8.3987   8.8286   9.3904   9.9600  10.6287  14.3684  14.9919
    15.1922  16.0221

          k = 0.4500 0.0500 0.3500 (  4887 PWs)   bands (ev):

   -45.3455 -21.7345 -21.6786 -21.6655  -6.2547  -5.3527  -5.3028  -4.4650
    -4.4422  -4.4356  -4.3458  -4.2118   3.4599   6.7038   7.0938   7.5156
     7.7983   8.6588   8.8938   9.4138  10.0443  10.7192  14.4447  14.7658
    15.0941  15.8763

          k = 0.4500 0.0500 0.4500 (  4878 PWs)   bands (ev):

   -45.3452 -21.7340 -21.6780 -21.6779  -6.2550  -5.2655  -5.2507  -4.4638
    -4.4408  -4.4364  -4.3736  -4.1614   3.3666   6.5860   6.9616   7.5454
     7.5646   8.8069   8.9403   9.1738   9.8139  10.8974  14.7437  14.7738
    15.1791  16.2070

          k =-0.1500 0.2500 0.1500 (  4894 PWs)   bands (ev):

   -45.3468 -21.7722 -21.6259 -21.6256  -6.3974  -5.6546  -5.5372  -4.4657
    -4.4489  -4.4149  -4.2967  -4.2756   4.0626   7.1569   7.1767   7.8420
     8.4754   8.6376   9.2680   9.8508  10.0247  10.2927  13.7090  14.3431
    14.3982  15.9253

          k =-0.1500 0.3500 0.1500 (  4896 PWs)   bands (ev):

   -45.3463 -21.7931 -21.6250 -21.6248  -6.2224  -5.6195  -5.5007  -4.4874
    -4.4451  -4.4019  -4.3202  -4.2698   3.8173   6.8747   7.0651   7.7057
     8.3676   8.6027   9.1358   9.8666  10.0758  10.5947  13.6423  14.7074
    14.7302  15.4293

          k =-0.1500 0.4500 0.1500 (  4910 PWs)   bands (ev):

   -45.3461 -21.8059 -21.6245 -21.6243  -6.1102  -5.5983  -5.4773  -4.4985
    -4.4425  -4.3865  -4.3379  -4.2733   3.6785   6.5767   7.0025   7.7483
     8.3242   8.5548   9.1099   9.8637  10.1069  10.7475  13.5819  14.9324
    14.9410  15.2148

          k = 0.2500 0.1500 0.2500 (  4902 PWs)   bands (ev):

   -45.3463 -21.7496 -21.6465 -21.6459  -6.3199  -5.6066  -5.4813  -4.4648
    -4.4477  -4.4017  -4.2865  -4.2685   3.9290   7.0583   7.1770   7.6388
     8.0818   8.4592   9.5808   9.7519  10.1413  10.1514  14.0626  14.2638
    14.4345  15.7029

          k =-0.1500 0.3500 0.2500 (  4898 PWs)   bands (ev):

   -45.3459 -21.7921 -21.6452 -21.6241  -6.1148  -5.5957  -5.4820  -4.4769
    -4.4474  -4.3810  -4.2820  -4.2444   3.7289   6.7724   6.9866   7.3998
     8.0364   8.4979   9.1570   9.8921  10.0898  10.4116  13.9352  14.6660
    14.7942  15.6937

          k = 0.3500 0.1500 0.2500 (  4898 PWs)   bands (ev):

   -45.3459 -21.7487 -21.6665 -21.6453  -6.2219  -5.5548  -5.4314  -4.4666
    -4.4390  -4.3812  -4.2868  -4.2634   3.7704   6.9288   7.0720   7.3221
     7.9060   8.4634   9.4290   9.7695  10.0937  10.3558  14.0346  14.4956
    14.7214  15.6608

          k =-0.1500 0.4500 0.2500 (  4893 PWs)   bands (ev):

   -45.3456 -21.8048 -21.6447 -21.6236  -6.0241  -5.5645  -5.4712  -4.4799
    -4.4424  -4.3622  -4.2875  -4.2376   3.6196   6.5280   6.8487   7.3821
     8.0292   8.5686   8.9861   9.9445  10.0738  10.4088  13.9133  14.8970
    14.9928  15.7786

          k = 0.4500 0.1500 0.2500 (  4893 PWs)   bands (ev):

   -45.3456 -21.7482 -21.6790 -21.6448  -6.1707  -5.5168  -5.3940  -4.4660
    -4.4312  -4.3636  -4.2869  -4.2687   3.6735   6.7240   6.9693   7.2647
     7.8796   8.5254   9.2427   9.8301  10.0072  10.4369  14.0175  14.6988
    14.9429  15.6907

          k = 0.3500 0.1500 0.3500 (  4899 PWs)   bands (ev):

   -45.3455 -21.7479 -21.6657 -21.6654  -6.1712  -5.4783  -5.3881  -4.4559
    -4.4307  -4.3583  -4.2816  -4.2275   3.6666   6.8864   6.9049   7.0728
     7.4960   8.4526   9.4971   9.6325   9.8966  10.5620  14.2712  14.5554
    14.8869  15.9573

          k =-0.1500 0.4500 0.3500 (  4904 PWs)   bands (ev):

   -45.3452 -21.8038 -21.6648 -21.6227  -5.9826  -5.5318  -5.4035  -4.4673
    -4.4231  -4.3483  -4.3085  -4.1407   3.5449   6.4492   6.9178   7.0306
     7.5076   8.5460   9.1219   9.6637   9.7982  10.5610  14.3198  14.8695
    15.1060  16.2778

          k = 0.4500 0.1500 0.3500 (  4904 PWs)   bands (ev):

   -45.3452 -21.7474 -21.6780 -21.6650  -6.1534  -5.4201  -5.3546  -4.4515
    -4.4169  -4.3448  -4.2926  -4.1968   3.5964   6.6921   6.8830   6.9492
     7.3811   8.4936   9.3543   9.6394   9.7122  10.7048  14.3897  14.6930
    15.0426  16.2030

          k = 0.4500 0.1500 0.4500 (  4888 PWs)   bands (ev):

   -45.3450 -21.7468 -21.6774 -21.6774  -6.1554  -5.3431  -5.3297  -4.4457
    -4.3918  -4.3318  -4.3169  -4.1461   3.5398   6.5748   6.8586   6.9232
     7.0633   8.5206   9.2022   9.5600   9.5736  10.8909  14.6668  14.7176
    15.1353  16.5192

          k =-0.2500 0.3500 0.2500 (  4905 PWs)   bands (ev):

   -45.3455 -21.7911 -21.6446 -21.6442  -5.9954  -5.5909  -5.5090  -4.4581
    -4.4358  -4.3293  -4.2374  -4.2075   3.7846   6.5461   6.7648   7.1028
     7.8843   7.9251   9.3524  10.0866  10.1680  10.2413  14.0041  14.6559
    14.7914  15.9567

          k =-0.2500 0.4500 0.2500 (  4887 PWs)   bands (ev):

   -45.3452 -21.8038 -21.6440 -21.6437  -5.9043  -5.5718  -5.5178  -4.4561
    -4.4254  -4.2832  -4.2446  -4.1935   3.7188   6.4002   6.5635   6.9964
     7.8670   7.9451   9.1287  10.0267  10.1970  10.2979  14.0720  14.8143
    15.0015  16.2464

          k = 0.3500 0.2500 0.3500 (  4892 PWs)   bands (ev):

   -45.3451 -21.7686 -21.6648 -21.6645  -6.0015  -5.5377  -5.4548  -4.4287
    -4.4202  -4.2755  -4.1938  -4.1912   3.8413   6.4823   6.4845   6.9501
     7.3696   7.8063   9.0931  10.0753  10.1163  10.5670  14.2376  14.6673
    14.8747  16.2838

          k =-0.2500 0.4500 0.3500 (  4891 PWs)   bands (ev):

   -45.3448 -21.8028 -21.6640 -21.6430  -5.8354  -5.5855  -5.4924  -4.4374
    -4.3963  -4.2534  -4.2061  -4.1081   3.7991   6.2185   6.5585   6.6622
     7.2729   7.8775   8.6698  10.0284  10.2837  10.5288  14.3887  14.8221
    15.0645  16.6573

          k = 0.4500 0.2500 0.3500 (  4891 PWs)   bands (ev):

   -45.3448 -21.7681 -21.6771 -21.6641  -5.9861  -5.5126  -5.4245  -4.4221
    -4.4031  -4.2273  -4.1940  -4.1613   3.8450   6.3360   6.4722   6.6921
     7.2530   7.8024   8.7285  10.1027  10.1224  10.6970  14.4553  14.6973
    15.0309  16.6320

          k = 0.4500 0.2500 0.4500 (  4873 PWs)   bands (ev):

   -45.3445 -21.7676 -21.6765 -21.6765  -5.9914  -5.4437  -5.4312  -4.4141
    -4.3838  -4.1905  -4.1792  -4.1159   3.8814   6.3070   6.3252   6.5664
     7.0049   7.7748   8.2928  10.1357  10.1398  10.8806  14.6930  14.7608
    15.1089  16.9639

          k =-0.3500 0.4500 0.3500 (  4875 PWs)   bands (ev):

   -45.3444 -21.8019 -21.6632 -21.6631  -5.7151  -5.6242  -5.5463  -4.4095
    -4.3797  -4.1755  -4.1023  -4.0604   4.1049   5.9172   6.2308   6.5227
     7.1510   7.3359   7.8768  10.4092  10.5482  10.5784  14.6143  14.9105
    15.0659  17.0641

          k = 0.4500 0.3500 0.4500 (  4847 PWs)   bands (ev):

   -45.3441 -21.7881 -21.6756 -21.6756  -5.8238  -5.5272  -5.5141  -4.3823
    -4.3808  -4.0888  -4.0560  -4.0539   4.3660   5.8846   5.8879   6.4942
     7.0051   7.1488   7.2977  10.5047  10.5135  10.8704  14.8670  14.9373
    15.0980  17.4305

     the Fermi energy is    11.0140 ev

!    total energy              =    -364.94867977 Ry
     Harris-Foulkes estimate   =    -364.94867978 Ry
     estimated scf accuracy    <          3.2E-09 Ry

     The total energy is the sum of the following terms:

     one-electron contribution =     -78.88577882 Ry
     hartree contribution      =      69.83984723 Ry
     xc contribution           =     -85.95764540 Ry
     ewald contribution        =    -269.95086461 Ry
     smearing contrib. (-TS)   =       0.00576183 Ry

     convergence has been achieved in  13 iterations

     Forces acting on atoms (cartesian axes, Ry/au):

     atom    1 type  1   force =     0.00000000    0.02022451    0.00000000
     atom    2 type  2   force =     0.00000000   -0.05383526    0.00000000
     atom    3 type  3   force =     0.00000000    0.00101798    0.00000000
     atom    4 type  3   force =     0.00000000    0.03157478    0.00000000
     atom    5 type  3   force =     0.00000000    0.00101798    0.00000000

     Total force =     0.062428     Total SCF correction =     0.000047


     Computing stress (Cartesian axis) and pressure

          total   stress  (Ry/bohr**3)                   (kbar)     P=   87.64
   0.00047879   0.00000000   0.00000000         70.43      0.00      0.00
   0.00000000   0.00082968   0.00000000          0.00    122.05      0.00
   0.00000000   0.00000000   0.00047879          0.00      0.00     70.43


     BFGS Geometry Optimization

     number of scf cycles    =   1
     number of bfgs steps    =   0

     energy   new            =    -364.9486797738 Ry

     new trust radius        =       0.0538352559 bohr
     new conv_thr            =       0.0000000100 Ry


ATOMIC_POSITIONS (crystal)
Pb       0.000000000   0.000000000   0.000000000    0   0   0
Ti       0.500000000   0.540724965   0.500000000
O        0.500000000   0.500137565   0.000000000
O        0.500000000   0.004266862   0.500000000
O        0.000000000   0.500137565   0.500000000



     Writing output data file PbTiO3.save/
     NEW-OLD atomic charge density approx. for the potential

     Check: negative core charge=   -0.000005

     total cpu time spent up to now is      487.0 secs

     Self-consistent Calculation

     iteration #  1     ecut=    80.00 Ry     beta= 0.70
     Davidson diagonalization with overlap
     c_bands:  1 eigenvalues not converged
     ethr =  1.00E-06,  avg # of iterations =  5.3

     total cpu time spent up to now is      552.1 secs

     total energy              =    -364.95094407 Ry
     Harris-Foulkes estimate   =    -364.95196329 Ry
     estimated scf accuracy    <       0.00146676 Ry

     iteration #  2     ecut=    80.00 Ry     beta= 0.70
     Davidson diagonalization with overlap
     ethr =  3.33E-06,  avg # of iterations =  4.3

     total cpu time spent up to now is      595.2 secs

     total energy              =    -364.95073598 Ry
     Harris-Foulkes estimate   =    -364.95206737 Ry
     estimated scf accuracy    <       0.00309294 Ry

     iteration #  3     ecut=    80.00 Ry     beta= 0.70
     Davidson diagonalization with overlap
     ethr =  3.33E-06,  avg # of iterations =  3.7

     total cpu time spent up to now is      634.8 secs

     total energy              =    -364.95141173 Ry
     Harris-Foulkes estimate   =    -364.95157652 Ry
     estimated scf accuracy    <       0.00047576 Ry

     iteration #  4     ecut=    80.00 Ry     beta= 0.70
     Davidson diagonalization with overlap
     ethr =  1.08E-06,  avg # of iterations =  3.0

     total cpu time spent up to now is      666.4 secs

     total energy              =    -364.95148457 Ry
     Harris-Foulkes estimate   =    -364.95148889 Ry
     estimated scf accuracy    <       0.00000842 Ry

     iteration #  5     ecut=    80.00 Ry     beta= 0.70
     Davidson diagonalization with overlap
     ethr =  1.91E-08,  avg # of iterations =  3.4

     total cpu time spent up to now is      706.0 secs

     total energy              =    -364.95148768 Ry
     Harris-Foulkes estimate   =    -364.95148944 Ry
     estimated scf accuracy    <       0.00000394 Ry

     iteration #  6     ecut=    80.00 Ry     beta= 0.70
     Davidson diagonalization with overlap
     ethr =  8.95E-09,  avg # of iterations =  3.0

     total cpu time spent up to now is      740.0 secs

     total energy              =    -364.95148856 Ry
     Harris-Foulkes estimate   =    -364.95148892 Ry
     estimated scf accuracy    <       0.00000107 Ry

     iteration #  7     ecut=    80.00 Ry     beta= 0.70
     Davidson diagonalization with overlap
     ethr =  2.43E-09,  avg # of iterations =  2.6

     total cpu time spent up to now is      771.5 secs

     total energy              =    -364.95148874 Ry
     Harris-Foulkes estimate   =    -364.95148875 Ry
     estimated scf accuracy    <       0.00000002 Ry

     iteration #  8     ecut=    80.00 Ry     beta= 0.70
     Davidson diagonalization with overlap
     ethr =  4.57E-11,  avg # of iterations =  3.5

     total cpu time spent up to now is      812.6 secs

     End of self-consistent calculation

          k = 0.0500 0.0500 0.0500 (  4915 PWs)   bands (ev):

   -45.4314 -21.7654 -21.6991 -21.6990  -6.8374  -5.7658  -5.6887  -4.4118
    -4.3995  -4.3991  -4.2595  -4.2515   5.1102   7.2707   7.3040   7.4724
     9.3777   9.4027   9.6597   9.8809  10.0730  10.1092  13.1043  13.4525
    13.4556  15.4566

          k = 0.0500 0.0500 0.1500 (  4895 PWs)   bands (ev):

   -45.4311 -21.7650 -21.7118 -21.6986  -6.7475  -5.7302  -5.6543  -4.4210
    -4.4086  -4.3987  -4.2935  -4.2471   4.7669   7.3258   7.3788   7.6910
     9.1585   9.2936   9.6444   9.7504   9.9198  10.1021  13.4367  13.4657
    13.6159  15.5979

          k = 0.0500 0.0500 0.2500 (  4900 PWs)   bands (ev):

   -45.4307 -21.7642 -21.7323 -21.6978  -6.5977  -5.6685  -5.5984  -4.4372
    -4.4231  -4.3976  -4.3533  -4.2389   4.3564   7.3469   7.4985   7.6735
     8.9785   9.0466   9.5777   9.6845   9.8939  10.1775  13.4586  13.9376
    14.0063  15.5958

          k = 0.0500 0.0500 0.3500 (  4901 PWs)   bands (ev):

   -45.4303 -21.7635 -21.7527 -21.6971  -6.4413  -5.5987  -5.5446  -4.4629
    -4.4373  -4.4091  -4.3966  -4.2327   4.0440   6.9773   7.6731   7.8080
     8.6667   8.7668   9.5037   9.6689  10.0159  10.5979  13.4592  14.3873
    14.4436  15.0125

          k = 0.0500 0.0500 0.4500 (  4915 PWs)   bands (ev):

   -45.4300 -21.7654 -21.7628 -21.6966  -6.3407  -5.5473  -5.5158  -4.4951
    -4.4466  -4.4304  -4.3960  -4.2301   3.8852   6.6651   7.8408   8.0490
     8.3872   8.4715   9.4578   9.6943  10.0674  11.0862  13.4517  14.2557
    14.6545  14.7282

          k = 0.0500 0.1500 0.1500 (  4904 PWs)   bands (ev):

   -45.4308 -21.7779 -21.7113 -21.6981  -6.6499  -5.7010  -5.6255  -4.4239
    -4.4185  -4.4068  -4.2856  -4.2656   4.5176   7.2777   7.3888   7.8811
     8.8929   9.1172   9.5251   9.7535   9.8824  10.1555  13.4443  13.7455
    13.8649  15.7608

          k = 0.0500 0.1500 0.2500 (  4901 PWs)   bands (ev):

   -45.4304 -21.7771 -21.7318 -21.6973  -6.5051  -5.6483  -5.5745  -4.4447
    -4.4280  -4.4062  -4.3168  -4.2560   4.1898   7.2401   7.5045   7.7884
     8.6971   8.9163   9.3798   9.6881   9.8067  10.3455  13.7384  13.9418
    14.1879  15.8179

          k = 0.0500 0.1500 0.3500 (  4907 PWs)   bands (ev):

   -45.4300 -21.7763 -21.7521 -21.6966  -6.3571  -5.5960  -5.5166  -4.4677
    -4.4375  -4.4057  -4.3463  -4.2495   3.9205   6.9595   7.5986   7.8108
     8.4295   8.7179   9.3467   9.6979   9.7926  10.6452  13.7358  14.3836
    14.5692  15.1811

          k = 0.0500 0.1500 0.4500 (  4905 PWs)   bands (ev):

   -45.4297 -21.7757 -21.7646 -21.6961  -6.2642  -5.5630  -5.4772  -4.4855
    -4.4460  -4.4053  -4.3567  -4.2498   3.7779   6.6708   7.6896   7.9808
     8.2670   8.4362   9.3988   9.7477   9.7671  10.8868  13.7198  14.6387
    14.6749  14.8254

          k = 0.0500 0.2500 0.2500 (  4904 PWs)   bands (ev):

   -45.4300 -21.7979 -21.7308 -21.6965  -6.3568  -5.6164  -5.5252  -4.4507
    -4.4309  -4.4156  -4.2864  -4.2731   3.9403   7.1225   7.5340   7.6765
     8.4792   8.6050   9.1310   9.6164  10.0120  10.4964  13.9201  14.1838
    14.4844  15.7828

          k = 0.0500 0.2500 0.3500 (  4893 PWs)   bands (ev):

   -45.4296 -21.7970 -21.7511 -21.6957  -6.2341  -5.5793  -5.4564  -4.4610
    -4.4365  -4.4171  -4.2976  -4.2502   3.7267   6.9295   7.4099   7.7200
     8.2340   8.5766   9.0006   9.4800  10.1378  10.5363  14.1581  14.3758
    14.7718  15.4787

          k = 0.0500 0.2500 0.4500 (  4894 PWs)   bands (ev):

   -45.4293 -21.7964 -21.7636 -21.6953  -6.1649  -5.5502  -5.4074  -4.4694
    -4.4445  -4.4183  -4.2894  -4.2467   3.6071   6.6754   7.4420   7.6873
     8.1726   8.5364   8.9496   9.4782  10.1629  10.5325  14.1537  14.6294
    14.9796  15.2829

          k = 0.0500 0.3500 0.3500 (  4912 PWs)   bands (ev):

   -45.4291 -21.8175 -21.7501 -21.6949  -6.1400  -5.5192  -5.3924  -4.4589
    -4.4393  -4.4214  -4.3184  -4.1899   3.5418   6.7818   7.1029   7.7268
     8.1065   8.4472   8.8821   9.3767  10.2128  10.4993  14.3443  14.5912
    14.9823  15.7930

          k = 0.0500 0.3500 0.4500 (  4887 PWs)   bands (ev):

   -45.4289 -21.8169 -21.7625 -21.6944  -6.1089  -5.4757  -5.3313  -4.4609
    -4.4431  -4.4251  -4.3268  -4.1530   3.4410   6.6352   6.9758   7.7501
     7.9662   8.6028   8.7602   9.2826  10.0345  10.5836  14.5747  14.6141
    15.1552  15.8667

          k = 0.0500 0.4500 0.4500 (  4878 PWs)   bands (ev):

   -45.4286 -21.8295 -21.7619 -21.6939  -6.0959  -5.3981  -5.2808  -4.4625
    -4.4421  -4.4274  -4.3498  -4.0983   3.3409   6.4677   6.8304   7.7682
     7.8744   8.5674   8.8044   9.1896   9.7263  10.7706  14.5907  14.8441
    15.2790  16.2440

          k = 0.1500 0.1500 0.1500 (  4893 PWs)   bands (ev):

   -45.4306 -21.7774 -21.7110 -21.7106  -6.5646  -5.6752  -5.5982  -4.4331
    -4.4267  -4.4063  -4.2771  -4.2698   4.3511   7.2502   7.2903   8.0101
     8.7288   8.8445   9.5432   9.8114   9.9301  10.0505  13.6868  13.8523
    13.8756  16.2847

          k = 0.1500 0.1500 0.2500 (  4894 PWs)   bands (ev):

   -45.4302 -21.7766 -21.7312 -21.7100  -6.4264  -5.6335  -5.5495  -4.4520
    -4.4271  -4.4025  -4.2954  -4.2559   4.0998   7.1909   7.2768   7.8292
     8.4826   8.6580   9.5200   9.7648   9.9158  10.2430  13.8197  14.0781
    14.1836  15.9078

          k = 0.1500 0.1500 0.3500 (  4896 PWs)   bands (ev):

   -45.4297 -21.7758 -21.7515 -21.7092  -6.2891  -5.5918  -5.4931  -4.4675
    -4.4194  -4.3956  -4.3213  -4.2493   3.8744   6.9558   7.2658   7.6646
     8.2778   8.7226   9.2212   9.8406   9.9328  10.5009  13.7575  14.4378
    14.5590  15.3745

          k = 0.1500 0.1500 0.4500 (  4910 PWs)   bands (ev):

   -45.4295 -21.7752 -21.7640 -21.7087  -6.2059  -5.5660  -5.4529  -4.4738
    -4.4137  -4.3868  -4.3404  -4.2512   3.7492   6.6778   7.2454   7.7124
     8.1888   8.8242   8.9798   9.8996   9.9241  10.6382  13.6928  14.6735
    14.8112  15.1204

          k = 0.1500 0.2500 0.2500 (  4902 PWs)   bands (ev):

   -45.4297 -21.7974 -21.7303 -21.7091  -6.2748  -5.6057  -5.5272  -4.4542
    -4.4361  -4.3890  -4.2657  -4.2545   3.9304   7.0452   7.1494   7.6411
     8.1508   8.4712   9.4902   9.7601  10.0516  10.3251  13.9643  14.2127
    14.4303  15.6891

          k = 0.1500 0.2500 0.3500 (  4898 PWs)   bands (ev):

   -45.4293 -21.7964 -21.7505 -21.7083  -6.1544  -5.5900  -5.4647  -4.4578
    -4.4256  -4.3765  -4.2699  -4.2338   3.7704   6.8944   7.0901   7.3561
     7.8711   8.5208   9.4407   9.6589  10.1531  10.3260  14.0423  14.4001
    14.7006  15.6450

          k = 0.1500 0.2500 0.4500 (  4893 PWs)   bands (ev):

   -45.4290 -21.7959 -21.7630 -21.7078  -6.0874  -5.5806  -5.4151  -4.4569
    -4.4161  -4.3710  -4.2640  -4.2328   3.6742   6.6754   7.0261   7.2853
     7.8031   8.6207   9.2288   9.7479  10.1285  10.2951  14.0321  14.6149
    14.9136  15.6896

          k = 0.1500 0.3500 0.3500 (  4899 PWs)   bands (ev):

   -45.4289 -21.8170 -21.7496 -21.7075  -6.0489  -5.5489  -5.4351  -4.4526
    -4.4169  -4.3561  -4.2766  -4.1740   3.6502   6.7329   6.9915   7.1031
     7.5144   8.4894   9.3848   9.6198   9.9835  10.4605  14.2428  14.5326
    14.8830  15.9571

          k = 0.1500 0.3500 0.4500 (  4904 PWs)   bands (ev):

   -45.4286 -21.8164 -21.7620 -21.7070  -6.0166  -5.5309  -5.3777  -4.4481
    -4.3982  -4.3561  -4.2823  -4.1373   3.5799   6.6222   6.8916   7.0246
     7.3444   8.5554   9.3152   9.5694   9.7407  10.5770  14.4367  14.5893
    15.0466  16.2044

          k = 0.1500 0.4500 0.4500 (  4888 PWs)   bands (ev):

   -45.4284 -21.8289 -21.7613 -21.7065  -6.0012  -5.4638  -5.3557  -4.4443
    -4.3742  -4.3390  -4.3112  -4.0812   3.5137   6.4481   6.7940   7.0414
     7.1406   8.5602   9.1160   9.4767   9.6201  10.7572  14.5626  14.7379
    15.1592  16.5471

          k = 0.2500 0.2500 0.2500 (  4902 PWs)   bands (ev):

   -45.4293 -21.7965 -21.7297 -21.7292  -6.1502  -5.5894  -5.5184  -4.4413
    -4.4385  -4.3564  -4.2407  -4.2267   3.8911   6.8383   6.9034   7.5119
     7.9161   7.9984   9.7124  10.0293  10.0514  10.1835  13.9660  14.3988
    14.4082  15.7094

          k = 0.2500 0.2500 0.3500 (  4905 PWs)   bands (ev):

   -45.4289 -21.7956 -21.7496 -21.7286  -6.0432  -5.5852  -5.4755  -4.4362
    -4.4198  -4.3173  -4.2229  -4.2076   3.8252   6.6714   6.7692   7.1266
     7.6623   7.9685   9.5463   9.9947  10.0893  10.3256  14.0242  14.4802
    14.6891  15.9242

          k = 0.2500 0.2500 0.4500 (  4887 PWs)   bands (ev):

   -45.4286 -21.7950 -21.7621 -21.7281  -5.9898  -5.5884  -5.4281  -4.4314
    -4.4068  -4.2770  -4.2223  -4.2025   3.7743   6.5562   6.6771   6.8811
     7.6133   8.0130   9.2982  10.0190  10.0587  10.3866  14.1152  14.5985
    14.9011  16.1941

          k = 0.2500 0.3500 0.3500 (  4892 PWs)   bands (ev):

   -45.4285 -21.8161 -21.7487 -21.7277  -5.9097  -5.5824  -5.4947  -4.4252
    -4.3989  -4.2719  -4.1998  -4.1436   3.8365   6.4437   6.5687   6.9171
     7.2851   7.8422   9.0829  10.0839  10.2224  10.4605  14.1994  14.6096
    14.8275  16.2734

          k = 0.2500 0.3500 0.4500 (  4891 PWs)   bands (ev):

   -45.4282 -21.8155 -21.7611 -21.7272  -5.8746  -5.5967  -5.4431  -4.4179
    -4.3805  -4.2390  -4.1932  -4.1069   3.8369   6.3970   6.4713   6.6773
     7.1208   7.8658   8.7076  10.1102  10.2108  10.5800  14.4286  14.6276
    14.9872  16.6343

          k = 0.2500 0.4500 0.4500 (  4873 PWs)   bands (ev):

   -45.4279 -21.8281 -21.7605 -21.7267  -5.8468  -5.5518  -5.4533  -4.4121
    -4.3590  -4.2141  -4.1783  -4.0485   3.8555   6.2678   6.4424   6.5389
     6.8867   7.8440   8.2377  10.1065  10.2527  10.7427  14.6133  14.7340
    15.0876  16.9828

          k = 0.3500 0.3500 0.3500 (  4890 PWs)   bands (ev):

   -45.4280 -21.8152 -21.7479 -21.7477  -5.8078  -5.5865  -5.5311  -4.3959
    -4.3867  -4.1923  -4.1264  -4.1059   4.0310   6.1596   6.2293   6.7955
     7.2488   7.2746   8.4057  10.3719  10.4499  10.5589  14.3726  14.8034
    14.8089  16.6633

          k = 0.3500 0.3500 0.4500 (  4875 PWs)   bands (ev):

   -45.4278 -21.8146 -21.7602 -21.7473  -5.7834  -5.5982  -5.5002  -4.3859
    -4.3722  -4.1338  -4.1025  -4.0694   4.1474   6.0217   6.1126   6.5954
     7.0683   7.2727   7.8946  10.4255  10.5305  10.6777  14.6055  14.7728
    14.9834  17.0615

          k = 0.3500 0.4500 0.4500 (  4847 PWs)   bands (ev):

   -45.4275 -21.8272 -21.7596 -21.7468  -5.6965  -5.6204  -5.5336  -4.3800
    -4.3548  -4.0973  -4.0547  -4.0083   4.3464   5.8833   5.9893   6.4416
     6.8684   7.1982   7.2827  10.5289  10.6579  10.7319  14.7905  14.8793
    15.0558  17.4397

          k = 0.4500 0.4500 0.4500 (  4836 PWs)   bands (ev):

   -45.4273 -21.8267 -21.7591 -21.7591  -5.6767  -5.5886  -5.5736  -4.3616
    -4.3513  -4.0276  -3.9844  -3.9787   4.8712   5.6871   5.7410   6.3478
     6.4378   6.8575   6.9313  10.7151  10.7265  10.8384  14.9711  15.0360
    15.0362  17.8117

          k =-0.0500 0.1500 0.0500 (  4895 PWs)   bands (ev):

   -45.4311 -21.7785 -21.6986 -21.6985  -6.7376  -5.7341  -5.6541  -4.4112
    -4.4101  -4.4071  -4.2886  -4.2532   4.7609   7.3186   7.3251   7.7017
     9.1621   9.1952   9.6551   9.7150  10.0954  10.0956  13.1058  13.7358
    13.7481  15.4581

          k =-0.0500 0.2500 0.0500 (  4900 PWs)   bands (ev):

   -45.4307 -21.7994 -21.6978 -21.6978  -6.5691  -5.6846  -5.5935  -4.4298
    -4.4191  -4.4100  -4.3505  -4.2448   4.3394   7.3180   7.4183   7.6189
     8.8812   8.9118   9.6049   9.7931  10.1403  10.2396  13.1080  14.1684
    14.1882  15.4607

          k =-0.0500 0.3500 0.0500 (  4901 PWs)   bands (ev):

   -45.4303 -21.8202 -21.6970 -21.6970  -6.3891  -5.6396  -5.5254  -4.4634
    -4.4296  -4.4089  -4.4062  -4.2385   4.0152   6.9262   7.5219   7.6621
     8.6321   8.6398   9.5419   9.9957  10.1924  10.6746  13.1092  14.5813
    14.6044  15.0789

          k =-0.0500 0.4500 0.0500 (  4915 PWs)   bands (ev):

   -45.4300 -21.8329 -21.6965 -21.6965  -6.2698  -5.6160  -5.4782  -4.5018
    -4.4354  -4.4279  -4.4083  -4.2359   3.8488   6.5890   7.5957   7.7744
     8.4483   8.4821   9.5010  10.0773  10.2278  11.1709  13.1070  14.3055
    14.8301  14.8573

          k = 0.1500 0.0500 0.1500 (  4904 PWs)   bands (ev):

   -45.4308 -21.7645 -21.7115 -21.7111  -6.6615  -5.7016  -5.6185  -4.4316
    -4.4091  -4.4061  -4.2913  -4.2618   4.5253   7.2733   7.4424   7.8680
     8.9596   9.0110   9.6413   9.6958   9.8889  10.1400  13.5842  13.6347
    13.7197  15.9086

          k =-0.0500 0.2500 0.1500 (  4901 PWs)   bands (ev):

   -45.4304 -21.7988 -21.7104 -21.6973  -6.4869  -5.6549  -5.5749  -4.4433
    -4.4208  -4.4154  -4.3138  -4.2611   4.1790   7.2020   7.4545   7.7774
     8.6066   8.8756   9.3875   9.7923   9.9226  10.3807  13.4432  14.1773
    14.2558  15.7967

          k = 0.2500 0.0500 0.1500 (  4901 PWs)   bands (ev):

   -45.4304 -21.7637 -21.7318 -21.7105  -6.5207  -5.6499  -5.5603  -4.4467
    -4.4195  -4.4063  -4.3229  -4.2574   4.1981   7.2539   7.5171   7.7878
     8.6680   8.8216   9.4432   9.7572   9.9214  10.2733  13.6052  13.9950
    14.1261  15.9496

          k =-0.0500 0.3500 0.1500 (  4907 PWs)   bands (ev):

   -45.4300 -21.8195 -21.7096 -21.6965  -6.3172  -5.6086  -5.5196  -4.4699
    -4.4260  -4.4176  -4.3449  -4.2548   3.8978   6.8867   7.4645   7.7538
     8.3817   8.6547   9.4542   9.7810   9.9775  10.7219  13.4354  14.5877
    14.6343  15.2609

          k = 0.3500 0.0500 0.1500 (  4907 PWs)   bands (ev):

   -45.4300 -21.7630 -21.7521 -21.7097  -6.3790  -5.5868  -5.5040  -4.4668
    -4.4268  -4.4057  -4.3599  -4.2511   3.9280   6.9730   7.5496   7.8458
     8.3872   8.7591   9.2047   9.7882   9.9753  10.6134  13.5917  14.4224
    14.5245  15.2213

          k =-0.0500 0.4500 0.1500 (  4905 PWs)   bands (ev):

   -45.4297 -21.8323 -21.7091 -21.6960  -6.2087  -5.5782  -5.4840  -4.4921
    -4.4323  -4.4174  -4.3559  -4.2549   3.7474   6.5748   7.4736   7.8656
     8.2404   8.4911   9.5470   9.7573  10.0147  10.9877  13.4209  14.6968
    14.8421  14.9120

          k = 0.4500 0.0500 0.1500 (  4905 PWs)   bands (ev):

   -45.4297 -21.7647 -21.7623 -21.7092  -6.2918  -5.5360  -5.4745  -4.4846
    -4.4324  -4.4053  -4.3761  -4.2504   3.7847   6.6745   7.6359   7.9654
     8.2952   8.5119   9.1860   9.7697  10.0174  10.9039  13.5635  14.6818
    14.7078  14.7775

          k = 0.2500 0.0500 0.2500 (  4904 PWs)   bands (ev):

   -45.4300 -21.7630 -21.7311 -21.7306  -6.4022  -5.6073  -5.4974  -4.4490
    -4.4224  -4.4135  -4.2897  -4.2851   3.9600   7.1948   7.5046   7.7358
     8.4074   8.4640   9.3704   9.6335  10.1159  10.3626  13.9191  14.0478
    14.4173  15.8608

          k =-0.0500 0.3500 0.2500 (  4893 PWs)   bands (ev):

   -45.4296 -21.8185 -21.7299 -21.6957  -6.2155  -5.5688  -5.4725  -4.4623
    -4.4325  -4.4216  -4.2981  -4.2516   3.7146   6.8403   7.4206   7.6524
     8.2713   8.5345   8.9952   9.6356  10.0957  10.6149  13.9096  14.5932
    14.7751  15.5496

          k = 0.3500 0.0500 0.2500 (  4893 PWs)   bands (ev):

   -45.4296 -21.7622 -21.7511 -21.7300  -6.2956  -5.5407  -5.4354  -4.4562
    -4.4259  -4.4159  -4.3034  -4.2692   3.7445   6.9748   7.3750   7.7248
     8.1961   8.4805   9.0828   9.6553  10.1885  10.5105  13.9528  14.4226
    14.7169  15.5238

          k =-0.0500 0.4500 0.2500 (  4894 PWs)   bands (ev):

   -45.4293 -21.8312 -21.7294 -21.6952  -6.1362  -5.5175  -5.4465  -4.4749
    -4.4322  -4.4291  -4.2927  -4.2461   3.5870   6.5506   7.4051   7.6305
     8.2281   8.4641   8.9925   9.6702  10.0816  10.6727  13.8980  14.8461
    14.9447  15.4142

          k = 0.4500 0.0500 0.2500 (  4894 PWs)   bands (ev):

   -45.4293 -21.7637 -21.7616 -21.7294  -6.2383  -5.4784  -5.4030  -4.4661
    -4.4305  -4.4185  -4.2939  -4.2716   3.6230   6.6868   7.4475   7.6047
     8.2391   8.5415   8.8285   9.7161  10.1443  10.6221  13.9390  14.7002
    14.9158  15.3122

          k = 0.3500 0.0500 0.3500 (  4912 PWs)   bands (ev):

   -45.4291 -21.7615 -21.7502 -21.7500  -6.2383  -5.4543  -5.3642  -4.4508
    -4.4309  -4.4166  -4.3211  -4.2205   3.5683   6.9460   7.0284   7.7105
     7.9378   8.4708   9.0500   9.4103  10.2360  10.5415  14.3372  14.4622
    14.9258  15.7887

          k =-0.0500 0.4500 0.3500 (  4887 PWs)   bands (ev):

   -45.4289 -21.8302 -21.7495 -21.6944  -6.1013  -5.4480  -5.3572  -4.4639
    -4.4392  -4.4280  -4.3283  -4.1525   3.4327   6.5191   7.0634   7.6543
     8.1003   8.4482   8.8175   9.3679  10.0088  10.6321  14.3380  14.8455
    15.1323  15.9864

          k = 0.4500 0.0500 0.3500 (  4887 PWs)   bands (ev):

   -45.4289 -21.7627 -21.7608 -21.7495  -6.2157  -5.3740  -5.3248  -4.4538
    -4.4303  -4.4239  -4.3310  -4.1870   3.4639   6.6701   7.0462   7.6015
     7.9054   8.6291   8.8465   9.3808  10.0448  10.6964  14.3881  14.6970
    15.0757  15.8897

          k = 0.4500 0.0500 0.4500 (  4878 PWs)   bands (ev):

   -45.4286 -21.7622 -21.7620 -21.7601  -6.2139  -5.2879  -5.2736  -4.4530
    -4.4291  -4.4253  -4.3567  -4.1358   3.3675   6.5595   6.8897   7.6545
     7.6797   8.7637   8.8798   9.1523   9.7923  10.8724  14.6815  14.7036
    15.1811  16.1995

          k =-0.1500 0.2500 0.1500 (  4894 PWs)   bands (ev):

   -45.4302 -21.7983 -21.7101 -21.7098  -6.4044  -5.6315  -5.5644  -4.4513
    -4.4315  -4.4020  -4.2878  -4.2614   4.0877   7.1870   7.1979   7.8314
     8.4983   8.6632   9.3494   9.8774   9.9937  10.2716  13.6594  14.2160
    14.2580  15.9271

          k =-0.1500 0.3500 0.1500 (  4896 PWs)   bands (ev):

   -45.4297 -21.8189 -21.7092 -21.7090  -6.2403  -5.5855  -5.5291  -4.4713
    -4.4269  -4.3902  -4.3119  -4.2551   3.8501   6.8890   7.1273   7.6853
     8.3540   8.6632   9.1546   9.8971  10.0440  10.5711  13.5941  14.5933
    14.6099  15.4165

          k =-0.1500 0.4500 0.1500 (  4910 PWs)   bands (ev):

   -45.4295 -21.8317 -21.7087 -21.7085  -6.1378  -5.5546  -5.5065  -4.4810
    -4.4238  -4.3761  -4.3302  -4.2578   3.7171   6.5801   7.0755   7.7359
     8.2928   8.6381   9.0895   9.8954  10.0740  10.7250  13.5324  14.8288
    14.8341  15.1894

          k = 0.2500 0.1500 0.2500 (  4902 PWs)   bands (ev):

   -45.4297 -21.7758 -21.7306 -21.7301  -6.3054  -5.6026  -5.5053  -4.4512
    -4.4337  -4.3880  -4.2696  -4.2588   3.9433   7.0725   7.1801   7.6374
     8.1118   8.4485   9.6411   9.7315  10.1364  10.1786  13.9924  14.1617
    14.3706  15.6953

          k =-0.1500 0.3500 0.2500 (  4898 PWs)   bands (ev):

   -45.4293 -21.8180 -21.7294 -21.7083  -6.1303  -5.5663  -5.5026  -4.4604
    -4.4303  -4.3689  -4.2688  -4.2363   3.7573   6.8168   7.0185   7.3708
     8.0054   8.4833   9.2466   9.8650  10.1303  10.3839  13.8979  14.5465
    14.7036  15.6722

          k = 0.3500 0.1500 0.2500 (  4898 PWs)   bands (ev):

   -45.4293 -21.7750 -21.7506 -21.7294  -6.1978  -5.5601  -5.4532  -4.4539
    -4.4252  -4.3685  -4.2710  -4.2495   3.7826   6.9195   7.0850   7.3248
     7.9201   8.4618   9.4247   9.7906  10.1289  10.3415  13.9613  14.4318
    14.6579  15.6513

          k =-0.1500 0.4500 0.2500 (  4893 PWs)   bands (ev):

   -45.4290 -21.8306 -21.7288 -21.7078  -6.0497  -5.5237  -5.4931  -4.4624
    -4.4246  -4.3525  -4.2716  -4.2315   3.6524   6.5557   6.8933   7.3551
     7.9866   8.5579   9.0631   9.9247  10.0993  10.3931  13.8703  14.7831
    14.9061  15.7608

          k = 0.4500 0.1500 0.2500 (  4893 PWs)   bands (ev):

   -45.4290 -21.7744 -21.7630 -21.7289  -6.1409  -5.5285  -5.4135  -4.4536
    -4.4176  -4.3531  -4.2687  -4.2539   3.6853   6.6845   6.9875   7.2832
     7.8866   8.5362   9.2239   9.8506  10.0478  10.4145  13.9368  14.6572
    14.8744  15.6977

          k = 0.3500 0.1500 0.3500 (  4899 PWs)   bands (ev):

   -45.4289 -21.7742 -21.7498 -21.7495  -6.1369  -5.4922  -5.4095  -4.4445
    -4.4159  -4.3479  -4.2715  -4.2043   3.6740   6.8902   6.9055   7.0817
     7.4994   8.4444   9.5048   9.6251   9.9167  10.5442  14.2310  14.4752
    14.8388  15.9468

          k =-0.1500 0.4500 0.3500 (  4904 PWs)   bands (ev):

   -45.4286 -21.8296 -21.7490 -21.7070  -6.0068  -5.4883  -5.4234  -4.4503
    -4.4056  -4.3379  -4.2925  -4.1364   3.5707   6.4989   6.9360   6.9898
     7.4682   8.5188   9.1985   9.6692   9.7782  10.5901  14.2839  14.7511
    15.0358  16.2591

          k = 0.4500 0.1500 0.3500 (  4904 PWs)   bands (ev):

   -45.4286 -21.7736 -21.7620 -21.7490  -6.1149  -5.4383  -5.3743  -4.4404
    -4.4018  -4.3358  -4.2823  -4.1718   3.6013   6.6620   6.9082   6.9622
     7.3875   8.4871   9.3423   9.6460   9.7201  10.6831  14.3299  14.6371
    14.9977  16.2098

          k = 0.4500 0.1500 0.4500 (  4888 PWs)   bands (ev):

   -45.4284 -21.7731 -21.7614 -21.7614  -6.1143  -5.3624  -5.3494  -4.4349
    -4.3757  -4.3236  -4.3075  -4.1199   3.5408   6.5495   6.8450   6.9797
     7.0662   8.5102   9.1845   9.5584   9.5750  10.8659  14.6081  14.6501
    15.1080  16.5294

          k =-0.2500 0.3500 0.2500 (  4905 PWs)   bands (ev):

   -45.4289 -21.8170 -21.7287 -21.7284  -6.0044  -5.5612  -5.5319  -4.4412
    -4.4207  -4.3155  -4.2229  -4.2018   3.8103   6.5969   6.7796   7.0907
     7.8367   7.8833   9.4413  10.0771  10.1459  10.2751  13.9726  14.5568
    14.6970  15.9328

          k =-0.2500 0.4500 0.2500 (  4887 PWs)   bands (ev):

   -45.4286 -21.8297 -21.7281 -21.7279  -5.9265  -5.5403  -5.5285  -4.4385
    -4.4096  -4.2693  -4.2310  -4.1890   3.7493   6.4535   6.5761   6.9697
     7.8113   7.9116   9.2028  10.0307  10.1771  10.3325  14.0304  14.7183
    14.9101  16.2324

          k = 0.3500 0.2500 0.3500 (  4892 PWs)   bands (ev):

   -45.4285 -21.7947 -21.7489 -21.7486  -5.9709  -5.5458  -5.4742  -4.4172
    -4.4037  -4.2634  -4.1874  -4.1707   3.8526   6.4945   6.5233   6.9413
     7.3149   7.7804   9.1062  10.1142  10.1367  10.5495  14.1976  14.5871
    14.8069  16.2688

          k =-0.2500 0.4500 0.3500 (  4891 PWs)   bands (ev):

   -45.4282 -21.8287 -21.7481 -21.7272  -5.8553  -5.5453  -5.5093  -4.4202
    -4.3822  -4.2321  -4.1976  -4.1044   3.8251   6.2730   6.5620   6.6359
     7.2206   7.8295   8.7015  10.0786  10.2567  10.5723  14.3475  14.7255
    14.9854  16.6455

          k = 0.4500 0.2500 0.3500 (  4891 PWs)   bands (ev):

   -45.4282 -21.7942 -21.7611 -21.7482  -5.9493  -5.5265  -5.4418  -4.4107
    -4.3866  -4.2176  -4.1872  -4.1388   3.8527   6.3560   6.5110   6.6635
     7.2056   7.7802   8.7295  10.1294  10.1552  10.6763  14.3917  14.6427
    14.9666  16.6312

          k = 0.4500 0.2500 0.4500 (  4873 PWs)   bands (ev):

   -45.4279 -21.7936 -21.7606 -21.7605  -5.9504  -5.4599  -5.4480  -4.4031
    -4.3664  -4.1844  -4.1739  -4.0890   3.8831   6.3414   6.3675   6.5445
     6.9317   7.7597   8.2811  10.1643  10.1661  10.8554  14.6322  14.6920
    15.0609  16.9717

          k =-0.3500 0.4500 0.3500 (  4875 PWs)   bands (ev):

   -45.4278 -21.8278 -21.7474 -21.7472  -5.7246  -5.5900  -5.5634  -4.3919
    -4.3676  -4.1491  -4.0965  -4.0573   4.1299   5.9566   6.2086   6.5286
     7.1135   7.2657   7.8937  10.4645  10.5465  10.6014  14.5685  14.8263
    14.9869  17.0592

          k = 0.4500 0.3500 0.4500 (  4847 PWs)   bands (ev):

   -45.4275 -21.8141 -21.7597 -21.7597  -5.7834  -5.5413  -5.5292  -4.3711
    -4.3632  -4.0679  -4.0503  -4.0438   4.3708   5.9078   5.9232   6.4733
     6.9295   7.1283   7.2904  10.5482  10.5551  10.8450  14.8035  14.8666
    15.0391  17.4384

     the Fermi energy is    11.0137 ev

!    total energy              =    -364.95148875 Ry
     Harris-Foulkes estimate   =    -364.95148875 Ry
     estimated scf accuracy    <          8.9E-10 Ry

     The total energy is the sum of the following terms:

     one-electron contribution =     -78.38307868 Ry
     hartree contribution      =      69.56847003 Ry
     xc contribution           =     -85.93842455 Ry
     ewald contribution        =    -270.20431557 Ry
     smearing contrib. (-TS)   =       0.00586002 Ry

     convergence has been achieved in   8 iterations

     Forces acting on atoms (cartesian axes, Ry/au):

     atom    1 type  1   force =     0.00000000    0.01740746    0.00000000
     atom    2 type  2   force =     0.00000000   -0.03007457    0.00000000
     atom    3 type  3   force =     0.00000000    0.00263422    0.00000000
     atom    4 type  3   force =     0.00000000    0.00739867    0.00000000
     atom    5 type  3   force =     0.00000000    0.00263422    0.00000000

     Total force =     0.031195     Total SCF correction =     0.000019


     Computing stress (Cartesian axis) and pressure

          total   stress  (Ry/bohr**3)                   (kbar)     P=   75.91
   0.00045310   0.00000000   0.00000000         66.65      0.00      0.00
   0.00000000   0.00064190   0.00000000          0.00     94.43      0.00
   0.00000000   0.00000000   0.00045310          0.00      0.00     66.65


     number of scf cycles    =   2
     number of bfgs steps    =   1

     energy   old            =    -364.9486797738 Ry
     energy   new            =    -364.9514887539 Ry

     CASE: energy  _new < energy  _old

     new trust radius        =       0.0618799494 bohr
     new conv_thr            =       0.0000000028 Ry


ATOMIC_POSITIONS (crystal)
Pb       0.000000000   0.000000000   0.000000000    0   0   0
Ti       0.500000000   0.532362810   0.500000000
O        0.500000000   0.500829140   0.000000000
O        0.500000000   0.006526631   0.500000000
O        0.000000000   0.500829140   0.500000000



     Writing output data file PbTiO3.save/
     NEW-OLD atomic charge density approx. for the potential

     Check: negative core charge=   -0.000005

     total cpu time spent up to now is      834.0 secs

     Self-consistent Calculation

     iteration #  1     ecut=    80.00 Ry     beta= 0.70
     Davidson diagonalization with overlap
     ethr =  1.00E-06,  avg # of iterations =  5.1

     total cpu time spent up to now is      898.8 secs

     total energy              =    -364.95255668 Ry
     Harris-Foulkes estimate   =    -364.95324689 Ry
     estimated scf accuracy    <       0.00104153 Ry

     iteration #  2     ecut=    80.00 Ry     beta= 0.70
     Davidson diagonalization with overlap
     ethr =  2.37E-06,  avg # of iterations =  4.3

     total cpu time spent up to now is      939.7 secs

     total energy              =    -364.95245829 Ry
     Harris-Foulkes estimate   =    -364.95320667 Ry
     estimated scf accuracy    <       0.00159873 Ry

     iteration #  3     ecut=    80.00 Ry     beta= 0.70
     Davidson diagonalization with overlap
     ethr =  2.37E-06,  avg # of iterations =  3.8

     total cpu time spent up to now is      976.7 secs

     total energy              =    -364.95282926 Ry
     Harris-Foulkes estimate   =    -364.95298149 Ry
     estimated scf accuracy    <       0.00044310 Ry

     iteration #  4     ecut=    80.00 Ry     beta= 0.70
     Davidson diagonalization with overlap
     ethr =  1.01E-06,  avg # of iterations =  3.0

     total cpu time spent up to now is     1006.8 secs

     total energy              =    -364.95289743 Ry
     Harris-Foulkes estimate   =    -364.95289965 Ry
     estimated scf accuracy    <       0.00000476 Ry

     iteration #  5     ecut=    80.00 Ry     beta= 0.70
     Davidson diagonalization with overlap
     ethr =  1.08E-08,  avg # of iterations =  3.6

     total cpu time spent up to now is     1047.8 secs

     total energy              =    -364.95290040 Ry
     Harris-Foulkes estimate   =    -364.95290117 Ry
     estimated scf accuracy    <       0.00000160 Ry

     iteration #  6     ecut=    80.00 Ry     beta= 0.70
     Davidson diagonalization with overlap
     ethr =  3.65E-09,  avg # of iterations =  3.1

     total cpu time spent up to now is     1082.0 secs

     total energy              =    -364.95290072 Ry
     Harris-Foulkes estimate   =    -364.95290113 Ry
     estimated scf accuracy    <       0.00000128 Ry

     iteration #  7     ecut=    80.00 Ry     beta= 0.70
     Davidson diagonalization with overlap
     ethr =  2.90E-09,  avg # of iterations =  2.6

     total cpu time spent up to now is     1111.6 secs

     total energy              =    -364.95290091 Ry
     Harris-Foulkes estimate   =    -364.95290091 Ry
     estimated scf accuracy    <          6.5E-09 Ry

     iteration #  8     ecut=    80.00 Ry     beta= 0.70
     Davidson diagonalization with overlap
     ethr =  1.48E-11,  avg # of iterations =  4.0

     total cpu time spent up to now is     1158.2 secs

     End of self-consistent calculation

          k = 0.0500 0.0500 0.0500 (  4915 PWs)   bands (ev):

   -45.4926 -21.7910 -21.7600 -21.7600  -6.8383  -5.7530  -5.7105  -4.3967
    -4.3900  -4.3896  -4.2490  -4.2447   5.1241   7.2748   7.2924   7.4647
     9.4860   9.5037   9.6723   9.9531  10.0809  10.1497  13.0599  13.2644
    13.2657  15.3852

          k = 0.0500 0.0500 0.1500 (  4895 PWs)   bands (ev):

   -45.4923 -21.7906 -21.7727 -21.7595  -6.7467  -5.7183  -5.6754  -4.4061
    -4.3989  -4.3891  -4.2836  -4.2393   4.7804   7.3253   7.3626   7.6893
     9.2553   9.3427   9.6655   9.8279   9.9235  10.1319  13.2660  13.4063
    13.4981  15.4648

          k = 0.0500 0.0500 0.2500 (  4900 PWs)   bands (ev):

   -45.4919 -21.7936 -21.7895 -21.7588  -6.5938  -5.6587  -5.6180  -4.4235
    -4.4124  -4.3880  -4.3433  -4.2306   4.3703   7.3377   7.4910   7.6617
     8.9994   9.0647   9.6064   9.7554   9.9553  10.2056  13.2689  13.9014
    13.9377  15.4634

          k = 0.0500 0.0500 0.3500 (  4901 PWs)   bands (ev):

   -45.4915 -21.8137 -21.7890 -21.7580  -6.4339  -5.5925  -5.5614  -4.4517
    -4.4244  -4.3986  -4.3870  -4.2239   4.0596   6.9529   7.6630   7.7874
     8.6685   8.7451   9.5374   9.7957  10.0725  10.6216  13.2699  14.3566
    14.3879  15.0390

          k = 0.0500 0.0500 0.4500 (  4915 PWs)   bands (ev):

   -45.4912 -21.8263 -21.7885 -21.7576  -6.3309  -5.5453  -5.5292  -4.4848
    -4.4318  -4.4206  -4.3864  -4.2210   3.9027   6.6254   7.8258   8.0228
     8.3901   8.4443   9.4921   9.8382  10.1214  11.1095  13.2657  14.2767
    14.6282  14.6681

          k = 0.0500 0.1500 0.1500 (  4904 PWs)   bands (ev):

   -45.4921 -21.8035 -21.7722 -21.7591  -6.6519  -5.6868  -5.6468  -4.4130
    -4.4046  -4.3971  -4.2772  -4.2561   4.5333   7.2758   7.3959   7.8772
     8.9563   9.1750   9.5705   9.7873   9.8925  10.1478  13.4031  13.5818
    13.7548  15.6746

          k = 0.0500 0.1500 0.2500 (  4901 PWs)   bands (ev):

   -45.4916 -21.8027 -21.7927 -21.7583  -6.5046  -5.6373  -5.5919  -4.4331
    -4.4142  -4.3966  -4.3076  -4.2477   4.2051   7.2361   7.5056   7.7824
     8.7033   8.9485   9.3980   9.7616   9.8402  10.3461  13.5752  13.9055
    14.1182  15.7429

          k = 0.0500 0.1500 0.3500 (  4907 PWs)   bands (ev):

   -45.4912 -21.8132 -21.8017 -21.7575  -6.3542  -5.5875  -5.5304  -4.4566
    -4.4229  -4.3961  -4.3379  -4.2408   3.9363   6.9386   7.5853   7.8061
     8.4211   8.7225   9.3789   9.7825   9.8305  10.6595  13.5705  14.3566
    14.5132  15.2055

          k = 0.0500 0.1500 0.4500 (  4905 PWs)   bands (ev):

   -45.4909 -21.8256 -21.8013 -21.7571  -6.2600  -5.5542  -5.4901  -4.4750
    -4.4307  -4.3956  -4.3490  -4.2406   3.7947   6.6326   7.6725   7.9702
     8.2626   8.4345   9.4472   9.7912   9.8381  10.9096  13.5565  14.6223
    14.6923  14.7685

          k = 0.0500 0.2500 0.2500 (  4904 PWs)   bands (ev):

   -45.4912 -21.8233 -21.7918 -21.7575  -6.3631  -5.6039  -5.5376  -4.4390
    -4.4170  -4.4054  -4.2763  -4.2662   3.9584   7.1408   7.5364   7.6730
     8.4890   8.6140   9.1627   9.6261  10.0548  10.4799  13.8847  14.0495
    14.4210  15.7714

          k = 0.0500 0.2500 0.3500 (  4893 PWs)   bands (ev):

   -45.4908 -21.8224 -21.8120 -21.7567  -6.2403  -5.5638  -5.4672  -4.4491
    -4.4222  -4.4073  -4.2880  -4.2440   3.7430   6.9222   7.3965   7.7199
     8.2475   8.5758   9.0041   9.5293  10.1743  10.5380  14.0231  14.3502
    14.7237  15.4903

          k = 0.0500 0.2500 0.4500 (  4894 PWs)   bands (ev):

   -45.4905 -21.8246 -21.8217 -21.7562  -6.1720  -5.5285  -5.4205  -4.4583
    -4.4291  -4.4088  -4.2799  -4.2409   3.6228   6.6421   7.4388   7.6718
     8.2138   8.5177   8.9441   9.5404  10.1815  10.5606  14.0161  14.6137
    14.9331  15.3017

          k = 0.0500 0.3500 0.3500 (  4912 PWs)   bands (ev):

   -45.4904 -21.8428 -21.8111 -21.7559  -6.1560  -5.4948  -5.4020  -4.4462
    -4.4254  -4.4109  -4.3082  -4.1852   3.5592   6.8208   7.0484   7.7478
     8.1035   8.4517   8.8964   9.3726  10.2507  10.4962  14.3238  14.4746
    14.9461  15.7810

          k = 0.0500 0.3500 0.4500 (  4887 PWs)   bands (ev):

   -45.4901 -21.8422 -21.8235 -21.7554  -6.1257  -5.4425  -5.3450  -4.4489
    -4.4279  -4.4156  -4.3169  -4.1489   3.4556   6.6234   6.9630   7.7353
     8.0028   8.5935   8.7591   9.2975  10.0495  10.6133  14.4606  14.6006
    15.1199  15.8764

          k = 0.0500 0.4500 0.4500 (  4878 PWs)   bands (ev):

   -45.4898 -21.8547 -21.8229 -21.7549  -6.1163  -5.3596  -5.2960  -4.4497
    -4.4266  -4.4182  -4.3397  -4.0951   3.3550   6.4876   6.7911   7.7892
     7.8566   8.6105   8.7849   9.1693   9.7460  10.7963  14.5885  14.7333
    15.2541  16.2250

          k = 0.1500 0.1500 0.1500 (  4893 PWs)   bands (ev):

   -45.4918 -21.8030 -21.7719 -21.7716  -6.5644  -5.6618  -5.6193  -4.4198
    -4.4165  -4.3956  -4.2661  -4.2622   4.3655   7.2617   7.2828   8.0153
     8.7848   8.8526   9.6488   9.8267   9.9036  10.0366  13.6504  13.7468
    13.7606  16.2178

          k = 0.1500 0.1500 0.2500 (  4894 PWs)   bands (ev):

   -45.4914 -21.8022 -21.7921 -21.7709  -6.4222  -5.6235  -5.5684  -4.4404
    -4.4161  -4.3915  -4.2846  -4.2474   4.1131   7.1937   7.2748   7.8329
     8.5058   8.6620   9.5299   9.8150   9.9399  10.2316  13.7153  14.0435
    14.1142  15.9185

          k = 0.1500 0.1500 0.3500 (  4896 PWs)   bands (ev):

   -45.4909 -21.8126 -21.8012 -21.7701  -6.2806  -5.5864  -5.5086  -4.4566
    -4.4088  -4.3836  -4.3103  -4.2404   3.8876   6.9368   7.2608   7.6670
     8.2881   8.7321   9.2129   9.8932   9.9597  10.5056  13.6526  14.4176
    14.5013  15.3840

          k = 0.1500 0.1500 0.4500 (  4910 PWs)   bands (ev):

   -45.4907 -21.8250 -21.8008 -21.7696  -6.1946  -5.5635  -5.4662  -4.4635
    -4.4037  -4.3733  -4.3298  -4.2421   3.7630   6.6399   7.2385   7.7223
     8.1914   8.8145   8.9990   9.9415   9.9527  10.6506  13.5893  14.6593
    14.7533  15.1336

          k = 0.1500 0.2500 0.2500 (  4902 PWs)   bands (ev):

   -45.4909 -21.8228 -21.7913 -21.7701  -6.2778  -5.5922  -5.5423  -4.4423
    -4.4241  -4.3779  -4.2545  -4.2478   3.9472   7.0646   7.1634   7.6380
     8.1471   8.4507   9.5771   9.7300  10.0888  10.2961  13.9369  14.1194
    14.3631  15.6854

          k = 0.1500 0.2500 0.3500 (  4898 PWs)   bands (ev):

   -45.4905 -21.8219 -21.8115 -21.7693  -6.1553  -5.5767  -5.4775  -4.4461
    -4.4145  -4.3633  -4.2596  -4.2276   3.7854   6.8932   7.0934   7.3411
     7.8913   8.4936   9.4189   9.7257  10.1894  10.3156  13.9594  14.3723
    14.6447  15.6417

          k = 0.1500 0.2500 0.4500 (  4893 PWs)   bands (ev):

   -45.4903 -21.8240 -21.8212 -21.7688  -6.0881  -5.5644  -5.4282  -4.4458
[...]

   -45.4756 -21.8285 -21.7780 -21.7777  -6.2263  -5.6618  -5.5975  -4.3538
    -4.3527  -4.2721  -4.1498  -4.0921   3.9095   6.7884   6.8579   7.4473
     7.9536   7.9537   9.6915   9.9131  10.1214  10.1305  13.9437  14.3338
    14.4045  15.8225

          k = 0.2500 0.2500 0.3500 (  4905 PWs)   bands (ev):

   -45.4751 -21.8276 -21.7979 -21.7770  -6.0989  -5.6434  -5.5963  -4.3508
    -4.3334  -4.2332  -4.1234  -4.0740   3.8231   6.6292   6.7139   7.0837
     7.6407   7.9899   9.5851   9.9727  10.0455  10.2482  14.0355  14.4151
    14.6467  16.0336

          k = 0.2500 0.2500 0.4500 (  4887 PWs)   bands (ev):

   -45.4749 -21.8270 -21.8103 -21.7765  -6.0306  -5.6415  -5.5734  -4.3471
    -4.3205  -4.1976  -4.1122  -4.0701   3.7628   6.5093   6.5999   6.8741
     7.5720   8.0554   9.3644   9.9939  10.0107  10.3050  14.1171  14.5304
    14.8493  16.3217

          k = 0.2500 0.3500 0.3500 (  4892 PWs)   bands (ev):

   -45.4747 -21.8480 -21.7970 -21.7762  -6.0089  -5.6458  -5.5460  -4.3379
    -4.3145  -4.1984  -4.0995  -4.0230   3.8523   6.4081   6.4880   6.9001
     7.2430   7.8184   9.2172  10.0503  10.0984  10.4319  14.1940  14.5845
    14.7838  16.3507

          k = 0.2500 0.3500 0.4500 (  4891 PWs)   bands (ev):

   -45.4745 -21.8473 -21.8093 -21.7756  -5.9694  -5.5951  -5.5626  -4.3317
    -4.2975  -4.1680  -4.0877  -3.9895   3.8457   6.2979   6.4141   6.6586
     7.1125   7.8546   8.8603  10.0744  10.0936  10.5521  14.4230  14.5784
    14.9411  16.7372

          k = 0.2500 0.4500 0.4500 (  4873 PWs)   bands (ev):

   -45.4742 -21.8598 -21.8087 -21.7751  -5.9616  -5.5912  -5.4966  -4.3263
    -4.2773  -4.1477  -4.0746  -3.9402   3.8804   6.2147   6.2809   6.5421
     6.8623   7.8171   8.4494  10.0840  10.1221  10.7201  14.5729  14.7224
    15.0353  17.0559

          k = 0.3500 0.3500 0.3500 (  4890 PWs)   bands (ev):

   -45.4743 -21.8470 -21.7962 -21.7961  -5.8725  -5.6631  -5.5949  -4.3068
    -4.3047  -4.1240  -4.0252  -3.9916   3.9912   6.1645   6.1747   6.7262
     7.2368   7.2663   8.5719  10.3433  10.3703  10.4857  14.3621  14.7424
    14.7706  16.7556

          k = 0.3500 0.3500 0.4500 (  4875 PWs)   bands (ev):

   -45.4740 -21.8464 -21.8084 -21.7956  -5.8169  -5.6435  -5.6220  -4.3007
    -4.2859  -4.0672  -4.0014  -3.9597   4.0641   5.9833   6.1325   6.5242
     7.0501   7.2811   8.0802  10.4033  10.4736  10.5865  14.5748  14.7182
    14.9265  17.1730

          k = 0.3500 0.4500 0.4500 (  4847 PWs)   bands (ev):

   -45.4738 -21.8589 -21.8079 -21.7951  -5.8063  -5.6585  -5.5657  -4.2913
    -4.2721  -4.0387  -3.9599  -3.9074   4.2726   5.8437   5.9202   6.3903
     6.8546   7.1932   7.5425  10.5115  10.5289  10.7176  14.7504  14.8374
    14.9949  17.5299

          k = 0.4500 0.4500 0.4500 (  4836 PWs)   bands (ev):

   -45.4735 -21.8583 -21.8074 -21.8073  -5.7117  -5.6924  -5.6064  -4.2703
    -4.2690  -3.9685  -3.8929  -3.8878   4.5951   5.7044   5.7423   6.2884
     6.7883   6.8829   6.8959  10.7044  10.7064  10.7233  14.9186  14.9723
    14.9787  17.9235

          k =-0.0500 0.1500 0.0500 (  4895 PWs)   bands (ev):

   -45.4773 -21.8106 -21.7473 -21.7472  -6.8191  -5.7781  -5.7066  -4.3349
    -4.3331  -4.3154  -4.2031  -4.1521   4.8152   7.2392   7.2539   7.7786
     9.1726   9.1989   9.5924   9.6675   9.9767  10.0191  13.0645  13.7370
    13.7570  15.4341

          k =-0.0500 0.2500 0.0500 (  4900 PWs)   bands (ev):

   -45.4769 -21.8314 -21.7465 -21.7464  -6.6675  -5.7292  -5.6447  -4.3504
    -4.3441  -4.3143  -4.2063  -4.1896   4.4021   7.2806   7.3154   7.6217
     8.9138   8.9384   9.5427   9.7220  10.0152  10.1882  13.0661  14.1673
    14.1954  15.4371

          k =-0.0500 0.3500 0.0500 (  4901 PWs)   bands (ev):

   -45.4765 -21.8521 -21.7457 -21.7457  -6.5110  -5.6764  -5.5813  -4.3667
    -4.3543  -4.3132  -4.2636  -4.1770   4.0800   6.9665   7.3935   7.5370
     8.6949   8.7094   9.4795   9.8702  10.0602  10.6628  13.0668  14.5793
    14.6129  15.0187

          k =-0.0500 0.4500 0.0500 (  4915 PWs)   bands (ev):

   -45.4762 -21.8648 -21.7452 -21.7452  -6.4115  -5.6414  -5.5412  -4.3779
    -4.3602  -4.3125  -4.3003  -4.1697   3.9128   6.6340   7.4432   7.5981
     8.5646   8.5717   9.4386   9.9358  10.0907  11.1579  13.0649  14.2657
    14.8279  14.8665

          k = 0.1500 0.0500 0.1500 (  4904 PWs)   bands (ev):

   -45.4771 -21.7968 -21.7600 -21.7597  -6.7280  -5.7479  -5.7014  -4.3532
    -4.3360  -4.3233  -4.2160  -4.1201   4.5523   7.1984   7.4388   7.8385
     8.9521   8.9854   9.5731   9.6281   9.7931  10.2313  13.5424  13.5826
    13.6760  15.8874

          k =-0.0500 0.2500 0.1500 (  4901 PWs)   bands (ev):

   -45.4767 -21.8308 -21.7590 -21.7460  -6.5838  -5.7164  -5.6187  -4.3576
    -4.3422  -4.3229  -4.1997  -4.1740   4.2386   7.1425   7.3691   7.7737
     8.6204   8.8754   9.3307   9.7289   9.8167  10.3728  13.3891  14.1747
    14.2362  15.7733

          k = 0.2500 0.0500 0.1500 (  4901 PWs)   bands (ev):

   -45.4767 -21.7961 -21.7800 -21.7590  -6.5780  -5.7006  -5.6721  -4.3768
    -4.3369  -4.3217  -4.2169  -4.1236   4.2158   7.1726   7.5045   7.7388
     8.6039   8.8800   9.3833   9.6747   9.8352  10.3818  13.5767  13.9130
    14.0588  15.9244

          k =-0.0500 0.3500 0.1500 (  4907 PWs)   bands (ev):

   -45.4762 -21.8514 -21.7582 -21.7452  -6.4375  -5.6739  -5.5515  -4.3714
    -4.3458  -4.3223  -4.2141  -4.1850   3.9623   6.8792   7.3678   7.6467
     8.4326   8.7002   9.3439   9.7240   9.8552  10.7347  13.3808  14.5770
    14.6342  15.2296

          k = 0.3500 0.0500 0.1500 (  4907 PWs)   bands (ev):

   -45.4762 -21.8008 -21.7947 -21.7582  -6.4221  -5.6575  -5.6382  -4.3961
    -4.3317  -4.3174  -4.2280  -4.1311   3.9420   6.8989   7.5064   7.8156
     8.3112   8.7893   9.1867   9.7090   9.9083  10.6845  13.5783  14.3300
    14.4455  15.4235

          k =-0.0500 0.4500 0.1500 (  4905 PWs)   bands (ev):

   -45.4760 -21.8641 -21.7577 -21.7447  -6.3474  -5.6450  -5.5072  -4.3806
    -4.3486  -4.3219  -4.2319  -4.1830   3.8129   6.5861   7.3541   7.6938
     8.3277   8.5812   9.4027   9.7037   9.8836  11.0168  13.3681  14.6930
    14.8311  14.8818

          k = 0.4500 0.0500 0.1500 (  4905 PWs)   bands (ev):

   -45.4760 -21.8129 -21.7946 -21.7577  -6.3225  -5.6349  -5.6129  -4.4052
    -4.3275  -4.3114  -4.2392  -4.1395   3.7984   6.6107   7.5930   7.9033
     8.2365   8.4960   9.2071   9.7057   9.9446  10.9551  13.5663  14.6016
    14.6938  14.9054

          k = 0.2500 0.0500 0.2500 (  4904 PWs)   bands (ev):

   -45.4762 -21.7955 -21.7793 -21.7790  -6.4424  -5.6593  -5.6494  -4.3825
    -4.3418  -4.3091  -4.1917  -4.1322   3.9546   7.1221   7.4540   7.6973
     8.4211   8.5035   9.2750   9.6026  10.0094  10.4776  13.8600  13.9678
    14.3258  16.0197

          k =-0.0500 0.3500 0.2500 (  4893 PWs)   bands (ev):

   -45.4758 -21.8504 -21.7783 -21.7444  -6.3316  -5.6511  -5.4992  -4.3669
    -4.3426  -4.3306  -4.2142  -4.1305   3.7811   6.7798   7.3879   7.5745
     8.2790   8.4512   8.9712   9.5332  10.0575  10.6511  13.8396  14.6034
    14.7533  15.5655

          k = 0.3500 0.0500 0.2500 (  4893 PWs)   bands (ev):

   -45.4758 -21.7999 -21.7940 -21.7783  -6.3112  -5.6365  -5.5973  -4.3877
    -4.3359  -4.2920  -4.1790  -4.1442   3.7227   6.9018   7.3136   7.7145
     8.2191   8.5208   9.0074   9.6198  10.1174  10.5628  13.8986  14.3370
    14.6064  15.7071

          k =-0.0500 0.4500 0.2500 (  4894 PWs)   bands (ev):

   -45.4756 -21.8630 -21.7778 -21.7439  -6.2660  -5.6191  -5.4475  -4.3736
    -4.3389  -4.3324  -4.2158  -4.1256   3.6569   6.5151   7.3234   7.5840
     8.1972   8.4367   8.9193   9.5568  10.0604  10.7246  13.8283  14.8534
    14.9465  15.3735

          k = 0.4500 0.0500 0.2500 (  4894 PWs)   bands (ev):

   -45.4756 -21.8119 -21.7939 -21.7777  -6.2349  -5.6154  -5.5636  -4.3896
    -4.3294  -4.2768  -4.1762  -4.1557   3.5933   6.6240   7.3810   7.6059
     8.2682   8.5200   8.8184   9.6718  10.1082  10.6243  13.8932  14.6116
    14.7936  15.4989

          k = 0.3500 0.0500 0.3500 (  4912 PWs)   bands (ev):

   -45.4754 -21.7994 -21.7983 -21.7927  -6.2220  -5.5945  -5.5465  -4.3818
    -4.3268  -4.2701  -4.1662  -4.1302   3.5157   6.8668   6.9670   7.7400
     8.0671   8.4308   8.9455   9.4164  10.3172  10.4189  14.2693  14.3798
    14.7796  15.9420

          k =-0.0500 0.4500 0.3500 (  4887 PWs)   bands (ev):

   -45.4751 -21.8619 -21.7978 -21.7431  -6.2194  -5.5410  -5.3880  -4.3698
    -4.3475  -4.3231  -4.2382  -4.0373   3.5107   6.4468   7.0453   7.6076
     7.9874   8.3380   8.8050   9.2917  10.1112  10.6102  14.2518  14.8596
    15.1144  15.9782

          k = 0.4500 0.0500 0.3500 (  4887 PWs)   bands (ev):

   -45.4751 -21.8109 -21.7983 -21.7924  -6.1813  -5.5517  -5.5127  -4.3791
    -4.3135  -4.2550  -4.1854  -4.1031   3.3946   6.6032   6.9846   7.6706
     8.0149   8.5777   8.7736   9.3694  10.1163  10.5714  14.3179  14.6156
    14.9002  16.0306

          k = 0.4500 0.0500 0.4500 (  4878 PWs)   bands (ev):

   -45.4749 -21.8103 -21.8102 -21.7923  -6.1653  -5.4905  -5.4807  -4.3743
    -4.2866  -4.2408  -4.2184  -4.0601   3.2752   6.4886   6.8475   7.7589
     7.8017   8.6913   8.7804   9.1730   9.8543  10.7419  14.6058  14.6267
    14.9695  16.1265

          k =-0.1500 0.2500 0.1500 (  4894 PWs)   bands (ev):

   -45.4764 -21.8303 -21.7586 -21.7584  -6.4989  -5.7033  -5.6073  -4.3645
    -4.3443  -4.3184  -4.1909  -4.1507   4.1393   7.1139   7.1484   7.8225
     8.5383   8.5571   9.3386   9.7785   9.9153  10.3107  13.5931  14.1725
    14.2633  15.9913

          k =-0.1500 0.3500 0.1500 (  4896 PWs)   bands (ev):

   -45.4760 -21.8508 -21.7578 -21.7576  -6.3594  -5.6747  -5.5390  -4.3774
    -4.3346  -4.3102  -4.1829  -4.1753   3.9094   6.8843   7.0407   7.6168
     8.4001   8.5480   9.1637   9.8122   9.9438  10.6049  13.5390  14.5543
    14.6337  15.4200

          k =-0.1500 0.4500 0.1500 (  4910 PWs)   bands (ev):

   -45.4757 -21.8635 -21.7572 -21.7571  -6.2755  -5.6567  -5.4909  -4.3831
    -4.3298  -4.2990  -4.1932  -4.1824   3.7792   6.5896   6.9887   7.6274
     8.3411   8.5578   9.0705   9.8223   9.9576  10.7723  13.4900  14.7981
    14.8614  15.1438

          k = 0.2500 0.1500 0.2500 (  4902 PWs)   bands (ev):

   -45.4760 -21.8081 -21.7789 -21.7785  -6.3568  -5.6540  -5.6404  -4.3732
    -4.3479  -4.2953  -4.1747  -4.1151   3.9465   7.0064   7.1593   7.5422
     8.1715   8.4429   9.5694   9.6532  10.0414  10.2964  13.9523  14.0880
    14.3097  15.8679

          k =-0.1500 0.3500 0.2500 (  4898 PWs)   bands (ev):

   -45.4756 -21.8499 -21.7778 -21.7569  -6.2452  -5.6619  -5.5134  -4.3694
    -4.3400  -4.2858  -4.1809  -4.1117   3.8114   6.7510   6.9849   7.3440
     7.9568   8.3922   9.2864   9.7435  10.0992  10.4165  13.8450  14.5570
    14.6841  15.7143

          k = 0.3500 0.1500 0.2500 (  4898 PWs)   bands (ev):

   -45.4756 -21.8073 -21.7986 -21.7778  -6.2245  -5.6406  -5.6036  -4.3741
    -4.3371  -4.2666  -4.1564  -4.1194   3.7669   6.8523   7.0559   7.2731
     7.9390   8.4888   9.3716   9.7302  10.1367  10.3197  13.9434  14.3530
    14.5842  15.8063

          k =-0.1500 0.4500 0.2500 (  4893 PWs)   bands (ev):

   -45.4753 -21.8624 -21.7773 -21.7564  -6.1808  -5.6477  -5.4596  -4.3711
    -4.3331  -4.2665  -4.1873  -4.1076   3.7119   6.5215   6.8585   7.2937
     7.9387   8.4072   9.1507   9.7907  10.0954  10.4249  13.8256  14.7991
    14.8803  15.7399

          k = 0.4500 0.1500 0.2500 (  4893 PWs)   bands (ev):

   -45.4753 -21.8113 -21.8065 -21.7773  -6.1481  -5.6375  -5.5677  -4.3729
    -4.3283  -4.2363  -4.1479  -4.1346   3.6608   6.6194   6.9720   7.2330
     7.8788   8.5891   9.1755   9.7907  10.1030  10.3383  13.9240  14.5711
    14.7950  15.8520

          k = 0.3500 0.1500 0.3500 (  4899 PWs)   bands (ev):

   -45.4751 -21.8066 -21.7978 -21.7976  -6.1263  -5.6127  -5.5763  -4.3651
    -4.3207  -4.2290  -4.1242  -4.1117   3.6213   6.8434   6.8440   7.0625
     7.5622   8.4647   9.4851   9.5729   9.9889  10.4230  14.2030  14.4026
    14.7398  16.0931

          k =-0.1500 0.4500 0.3500 (  4904 PWs)   bands (ev):

   -45.4749 -21.8614 -21.7972 -21.7556  -6.1266  -5.5854  -5.4292  -4.3624
    -4.3191  -4.2511  -4.1936  -4.0209   3.6333   6.4205   6.9172   6.9751
     7.3464   8.4349   9.2769   9.5932   9.7973  10.5598  14.2304  14.7669
    15.0033  16.2773

          k = 0.4500 0.1500 0.3500 (  4904 PWs)   bands (ev):

   -45.4749 -21.8103 -21.8058 -21.7971  -6.0824  -5.5911  -5.5438  -4.3605
    -4.3046  -4.1951  -4.1404  -4.0855   3.5278   6.5954   6.8772   6.9755
     7.4308   8.5211   9.3315   9.6276   9.7524  10.5570  14.2865  14.5675
    14.8830  16.3622

          k = 0.4500 0.1500 0.4500 (  4888 PWs)   bands (ev):

   -45.4746 -21.8098 -21.8096 -21.8049  -6.0641  -5.5371  -5.5284  -4.3546
    -4.2784  -4.1702  -4.1537  -4.0453   3.4381   6.4785   6.8146   7.0344
     7.1236   8.5416   9.2588   9.5166   9.5469  10.7357  14.5503  14.5866
    14.9690  16.6853

          k =-0.2500 0.3500 0.2500 (  4905 PWs)   bands (ev):

   -45.4751 -21.8489 -21.7771 -21.7769  -6.1135  -5.6700  -5.5308  -4.3527
    -4.3335  -4.2394  -4.1321  -4.0736   3.8439   6.5616   6.7187   7.0699
     7.7560   7.8594   9.5242  10.0034  10.0863  10.2477  13.9507  14.5836
    14.6393  15.9905

          k =-0.2500 0.4500 0.2500 (  4887 PWs)   bands (ev):

   -45.4749 -21.8615 -21.7765 -21.7763  -6.0566  -5.6752  -5.4735  -4.3507
    -4.3220  -4.2074  -4.1302  -4.0638   3.7914   6.4252   6.5568   6.8933
     7.7489   7.8275   9.3357  10.0346  10.0406  10.3044  13.9994  14.7482
    14.8567  16.2371

          k = 0.3500 0.2500 0.3500 (  4892 PWs)   bands (ev):

   -45.4747 -21.8267 -21.7971 -21.7969  -5.9803  -5.6266  -5.6214  -4.3354
    -4.3131  -4.1729  -4.0731  -4.0571   3.8024   6.4757   6.5188   6.8529
     7.3269   7.7993   9.2145  10.0847  10.0930  10.4339  14.1941  14.5228
    14.7455  16.3824

          k =-0.2500 0.4500 0.3500 (  4891 PWs)   bands (ev):

   -45.4745 -21.8605 -21.7964 -21.7756  -5.9769  -5.6488  -5.4860  -4.3336
    -4.2983  -4.1707  -4.0909  -3.9909   3.8533   6.2436   6.4584   6.6300
     7.1449   7.7881   8.8865  10.0546  10.1244  10.5482  14.3163  14.7303
    14.9332  16.6924

          k = 0.4500 0.2500 0.3500 (  4891 PWs)   bands (ev):

   -45.4745 -21.8261 -21.8093 -21.7964  -5.9273  -5.6404  -5.5893  -4.3294
    -4.2955  -4.1190  -4.0673  -4.0380   3.7724   6.3611   6.5180   6.5946
     7.1871   7.8116   8.8493  10.1009  10.1224  10.5539  14.3630  14.5834
    14.8934  16.7631

          k = 0.4500 0.2500 0.4500 (  4873 PWs)   bands (ev):

   -45.4742 -21.8255 -21.8088 -21.8088  -5.8979  -5.6035  -5.5970  -4.3224
    -4.2736  -4.0674  -4.0483  -4.0136   3.7548   6.3728   6.4142   6.4840
     6.9035   7.7830   8.4111  10.1402  10.1416  10.7258  14.5827  14.6345
    14.9731  17.1141

          k =-0.3500 0.4500 0.3500 (  4875 PWs)   bands (ev):

   -45.4740 -21.8595 -21.7956 -21.7955  -5.8423  -5.6875  -5.5357  -4.3032
    -4.2856  -4.0929  -3.9940  -3.9518   4.1040   5.9784   6.0806   6.4963
     7.0533   7.2514   8.1238  10.4119  10.4420  10.5863  14.5392  14.8033
    14.9264  17.1345

          k = 0.4500 0.3500 0.4500 (  4847 PWs)   bands (ev):

   -45.4738 -21.8458 -21.8079 -21.8079  -5.7375  -5.6578  -5.6532  -4.2902
    -4.2706  -3.9978  -3.9488  -3.9478   4.1887   5.9379   5.9761   6.4002
     6.8952   7.1452   7.4989  10.5338  10.5406  10.7163  14.7514  14.8065
    14.9760  17.5665

     the Fermi energy is    11.0052 ev

!    total energy              =    -364.95622287 Ry
     Harris-Foulkes estimate   =    -364.95622287 Ry
     estimated scf accuracy    <          2.0E-11 Ry

     The total energy is the sum of the following terms:

     one-electron contribution =     -79.33653267 Ry
     hartree contribution      =      70.04409787 Ry
     xc contribution           =     -85.95805101 Ry
     ewald contribution        =    -269.71170148 Ry
     smearing contrib. (-TS)   =       0.00596441 Ry

     convergence has been achieved in   8 iterations

     Forces acting on atoms (cartesian axes, Ry/au):

     atom    1 type  1   force =     0.00000000   -0.00010333    0.00000000
     atom    2 type  2   force =     0.00000000   -0.00006017    0.00000000
     atom    3 type  3   force =     0.00000000    0.00001172    0.00000000
     atom    4 type  3   force =     0.00000000    0.00014007    0.00000000
     atom    5 type  3   force =     0.00000000    0.00001172    0.00000000

     Total force =     0.000153     Total SCF correction =     0.000002


     Computing stress (Cartesian axis) and pressure

          total   stress  (Ry/bohr**3)                   (kbar)     P=   81.73
   0.00048152   0.00000000   0.00000000         70.83      0.00      0.00
   0.00000000   0.00070372   0.00000000          0.00    103.52      0.00
   0.00000000   0.00000000   0.00048152          0.00      0.00     70.83


     bfgs converged in  24 scf cycles and  23 bfgs steps
     (criteria: energy <  1.0E-04 Ry, force <  1.0E-03 Ry/Bohr)

     End of BFGS Geometry Optimization

     Final energy   =    -364.9562228685 Ry
Begin final coordinates

ATOMIC_POSITIONS (crystal)
Pb       0.000000000   0.000000000   0.000000000    0   0   0
Ti       0.500000000   0.521003573   0.500000000
O        0.500000000   0.568082960   0.000000000
O        0.500000000   0.057170506   0.500000000
O        0.000000000   0.568082960   0.500000000
End final coordinates



     Writing output data file PbTiO3.save/

     init_run     :     11.61s CPU     15.22s WALL (       1 calls)
     electrons    :   5709.58s CPU   7926.59s WALL (      24 calls)
     update_pot   :      8.77s CPU      9.20s WALL (      23 calls)
     forces       :    120.88s CPU    137.83s WALL (      24 calls)
     stress       :    315.00s CPU    342.69s WALL (      24 calls)

     Called by init_run:
     wfcinit      :      8.73s CPU     12.03s WALL (       1 calls)
     potinit      :      0.28s CPU      0.29s WALL (       1 calls)
     hinit0       :      1.99s CPU      1.99s WALL (       1 calls)

     Called by electrons:
     c_bands      :   4907.61s CPU   6674.19s WALL (     210 calls)
     sum_band     :    637.70s CPU   1031.27s WALL (     210 calls)
     v_of_rho     :     46.24s CPU     50.06s WALL (     229 calls)
     newd         :    130.16s CPU    187.95s WALL (     229 calls)
     mix_rho      :      3.93s CPU      4.60s WALL (     210 calls)

     Called by c_bands:
     init_us_2    :     80.36s CPU    104.98s WALL (   35175 calls)
     cegterg      :   4668.75s CPU   6414.62s WALL (   15750 calls)

     Called by sum_band:
     sum_band:bec :      0.98s CPU      1.39s WALL (   15750 calls)
     addusdens    :    165.62s CPU    219.32s WALL (     210 calls)

     Called by *egterg:
     h_psi        :   2546.27s CPU   4072.49s WALL (   67744 calls)
     s_psi        :    495.79s CPU    546.82s WALL (   67744 calls)
     g_psi        :     43.32s CPU     57.45s WALL (   51919 calls)
     cdiaghg      :     84.89s CPU    114.63s WALL (   65569 calls)

     Called by h_psi:
     h_psi:pot    :   2536.42s CPU   4056.34s WALL (   67744 calls)
     h_psi:calbec :    486.84s CPU    543.21s WALL (   67744 calls)
     vloc_psi     :   1542.79s CPU   2963.79s WALL (   67744 calls)
     add_vuspsi   :    502.04s CPU    543.65s WALL (   67744 calls)

     General routines
     calbec       :    767.29s CPU    849.15s WALL (   92494 calls)
     fft          :     20.94s CPU     23.40s WALL (    3557 calls)
     ffts         :      0.50s CPU      0.80s WALL (     439 calls)
     fftw         :   1590.69s CPU   3092.14s WALL ( 2692698 calls)
     interpolate  :      1.77s CPU      2.30s WALL (     229 calls)

     Parallel routines

     PWSCF        :      1h43m CPU      2h20m WALL


   This run was terminated on:  13:57:15  14May2020            

=------------------------------------------------------------------------------=
   JOB DONE.
=------------------------------------------------------------------------------=
