
     Program PWSCF v.6.4.1 starts on 14May2020 at 19: 2:21 

     This program is part of the open-source Quantum ESPRESSO suite
     for quantum simulation of materials; please cite
         "P. Giannozzi et al., J. Phys.:Condens. Matter 21 395502 (2009);
         "P. Giannozzi et al., J. Phys.:Condens. Matter 29 465901 (2017);
          URL http://www.quantum-espresso.org", 
     in publications or presentations arising from this work. More details at
     http://www.quantum-espresso.org/quote

     Parallel version (MPI), running on     1 processors

     MPI processes distributed on     1 nodes
     Reading input from PTO_7.55_10_0.548.pw.in
Warning: card  &CELL ignored
Warning: card   CELL_DYNAMICS = 'BFGS', ignored
Warning: card  / ignored

     Current dimensions of program PWSCF are:
     Max number of different atomic species (ntypx) = 10
     Max number of k-points (npk) =  40000
     Max angular momentum in pseudopotentials (lmaxx) =  3
     Message from routine read_upf::
     Pseudo file Pb.pbe-dn-rrkjus_psl.0.2.2.UPF has been fixed on the fly.
To avoid this message in the future, permanently fix 
 your pseudo files following these instructions: 
https://gitlab.com/QEF/q-e/blob/master/upftools/how_to_fix_upf.md
     Message from routine read_upf::
     Pseudo file O.pbe-n-rrkjus_psl.0.1.UPF has been fixed on the fly.
To avoid this message in the future, permanently fix 
 your pseudo files following these instructions: 
https://gitlab.com/QEF/q-e/blob/master/upftools/how_to_fix_upf.md
               file Pb.pbe-dn-rrkjus_psl.0.2.2.UPF: wavefunction(s)  6S renormalized

     Subspace diagonalization in iterative solution of the eigenvalue problem:
     a serial algorithm will be used


     G-vector sticks info
     --------------------
     sticks:   dense  smooth     PW     G-vecs:    dense   smooth      PW
     Sum        3613    1457    421               164415    41851    6403



     bravais-lattice index     =            1
     lattice parameter (alat)  =       7.5500  a.u.
     unit-cell volume          =     430.3689 (a.u.)^3
     number of atoms/cell      =            5
     number of atomic types    =            3
     number of electrons       =        44.00
     number of Kohn-Sham states=           26
     kinetic-energy cutoff     =      80.0000  Ry
     charge density cutoff     =     800.0000  Ry
     convergence threshold     =      1.0E-08
     mixing beta               =       0.7000
     number of iterations used =            8  plain     mixing
     Exchange-correlation      = PBE ( 1  4  3  4 0 0)
     nstep                     =           50


     celldm(1)=   7.550000  celldm(2)=   0.000000  celldm(3)=   0.000000
     celldm(4)=   0.000000  celldm(5)=   0.000000  celldm(6)=   0.000000

     crystal axes: (cart. coord. in units of alat)
               a(1) = (   1.000000   0.000000   0.000000 )  
               a(2) = (   0.000000   1.000000   0.000000 )  
               a(3) = (   0.000000   0.000000   1.000000 )  

     reciprocal axes: (cart. coord. in units 2 pi/alat)
               b(1) = (  1.000000  0.000000  0.000000 )  
               b(2) = (  0.000000  1.000000  0.000000 )  
               b(3) = (  0.000000  0.000000  1.000000 )  


     PseudoPot. # 1 for Pb read from file:
     ./Pb.pbe-dn-rrkjus_psl.0.2.2.UPF
     MD5 check sum: 7afc420059c37d6888fc09c0f121e83f
     Pseudo is Ultrasoft + core correction, Zval = 14.0
     Generated using "atomic" code by A. Dal Corso v.5.0.2 svn rev. 9415
     Using radial grid of 1281 points,  6 beta functions with: 
                l(1) =   0
                l(2) =   0
                l(3) =   1
                l(4) =   1
                l(5) =   2
                l(6) =   2
     Q(r) pseudized with 0 coefficients 


     PseudoPot. # 2 for Ti read from file:
     ./Ti.pbe-sp-van_ak.UPF
     MD5 check sum: 8e4df49b7f0d34bbd5052bf3f5ea0213
     Pseudo is Ultrasoft, Zval = 12.0
     Generated by new atomic code, or converted to UPF format
     Using radial grid of  851 points,  6 beta functions with: 
                l(1) =   0
                l(2) =   0
                l(3) =   1
                l(4) =   1
                l(5) =   2
                l(6) =   2
     Q(r) pseudized with  8 coefficients,  rinner =    1.000   1.000   1.000
                                                       1.000   1.000

     PseudoPot. # 3 for O  read from file:
     ./O.pbe-n-rrkjus_psl.0.1.UPF
     MD5 check sum: e057bbcf3229fb5d8c36c0c92f9568b4
     Pseudo is Ultrasoft + core correction, Zval =  6.0
     Generated using "atomic" code by A. Dal Corso v.5.0.2 svn rev. 9415
     Using radial grid of 1095 points,  4 beta functions with: 
                l(1) =   0
                l(2) =   0
                l(3) =   1
                l(4) =   1
     Q(r) pseudized with 0 coefficients 


     atomic species   valence    mass     pseudopotential
        Pb            14.00   207.20000     Pb( 1.00)
        Ti            12.00    47.87000     Ti( 1.00)
        O              6.00    16.00000     O ( 1.00)

      8 Sym. Ops. (no inversion) found



   Cartesian axes

     site n.     atom                  positions (alat units)
         1           Pb  tau(   1) = (   0.0000000   0.0000000   0.0000000  )
         2           Ti  tau(   2) = (   0.5000000   0.5480000   0.5000000  )
         3           O   tau(   3) = (   0.5000000   0.5000000   0.0000000  )
         4           O   tau(   4) = (   0.5000000   0.0000000   0.5000000  )
         5           O   tau(   5) = (   0.0000000   0.5000000   0.5000000  )

     number of k points=    75  Marzari-Vanderbilt smearing, width (Ry)=  0.0250
                       cart. coord. in units 2pi/alat
        k(    1) = (   0.0500000   0.0500000   0.0500000), wk =   0.0160000
        k(    2) = (   0.0500000   0.0500000   0.1500000), wk =   0.0320000
        k(    3) = (   0.0500000   0.0500000   0.2500000), wk =   0.0320000
        k(    4) = (   0.0500000   0.0500000   0.3500000), wk =   0.0320000
        k(    5) = (   0.0500000   0.0500000   0.4500000), wk =   0.0320000
        k(    6) = (   0.0500000   0.1500000   0.1500000), wk =   0.0320000
        k(    7) = (   0.0500000   0.1500000   0.2500000), wk =   0.0320000
        k(    8) = (   0.0500000   0.1500000   0.3500000), wk =   0.0320000
        k(    9) = (   0.0500000   0.1500000   0.4500000), wk =   0.0320000
        k(   10) = (   0.0500000   0.2500000   0.2500000), wk =   0.0320000
        k(   11) = (   0.0500000   0.2500000   0.3500000), wk =   0.0320000
        k(   12) = (   0.0500000   0.2500000   0.4500000), wk =   0.0320000
        k(   13) = (   0.0500000   0.3500000   0.3500000), wk =   0.0320000
        k(   14) = (   0.0500000   0.3500000   0.4500000), wk =   0.0320000
        k(   15) = (   0.0500000   0.4500000   0.4500000), wk =   0.0320000
        k(   16) = (   0.1500000   0.1500000   0.1500000), wk =   0.0160000
        k(   17) = (   0.1500000   0.1500000   0.2500000), wk =   0.0320000
        k(   18) = (   0.1500000   0.1500000   0.3500000), wk =   0.0320000
        k(   19) = (   0.1500000   0.1500000   0.4500000), wk =   0.0320000
        k(   20) = (   0.1500000   0.2500000   0.2500000), wk =   0.0320000
        k(   21) = (   0.1500000   0.2500000   0.3500000), wk =   0.0320000
        k(   22) = (   0.1500000   0.2500000   0.4500000), wk =   0.0320000
        k(   23) = (   0.1500000   0.3500000   0.3500000), wk =   0.0320000
        k(   24) = (   0.1500000   0.3500000   0.4500000), wk =   0.0320000
        k(   25) = (   0.1500000   0.4500000   0.4500000), wk =   0.0320000
        k(   26) = (   0.2500000   0.2500000   0.2500000), wk =   0.0160000
        k(   27) = (   0.2500000   0.2500000   0.3500000), wk =   0.0320000
        k(   28) = (   0.2500000   0.2500000   0.4500000), wk =   0.0320000
        k(   29) = (   0.2500000   0.3500000   0.3500000), wk =   0.0320000
        k(   30) = (   0.2500000   0.3500000   0.4500000), wk =   0.0320000
        k(   31) = (   0.2500000   0.4500000   0.4500000), wk =   0.0320000
        k(   32) = (   0.3500000   0.3500000   0.3500000), wk =   0.0160000
        k(   33) = (   0.3500000   0.3500000   0.4500000), wk =   0.0320000
        k(   34) = (   0.3500000   0.4500000   0.4500000), wk =   0.0320000
        k(   35) = (   0.4500000   0.4500000   0.4500000), wk =   0.0160000
        k(   36) = (  -0.0500000   0.1500000   0.0500000), wk =   0.0160000
        k(   37) = (  -0.0500000   0.2500000   0.0500000), wk =   0.0160000
        k(   38) = (  -0.0500000   0.3500000   0.0500000), wk =   0.0160000
        k(   39) = (  -0.0500000   0.4500000   0.0500000), wk =   0.0160000
        k(   40) = (   0.1500000   0.0500000   0.1500000), wk =   0.0160000
        k(   41) = (  -0.0500000   0.2500000   0.1500000), wk =   0.0320000
        k(   42) = (   0.2500000   0.0500000   0.1500000), wk =   0.0320000
        k(   43) = (  -0.0500000   0.3500000   0.1500000), wk =   0.0320000
        k(   44) = (   0.3500000   0.0500000   0.1500000), wk =   0.0320000
        k(   45) = (  -0.0500000   0.4500000   0.1500000), wk =   0.0320000
        k(   46) = (   0.4500000   0.0500000   0.1500000), wk =   0.0320000
        k(   47) = (   0.2500000   0.0500000   0.2500000), wk =   0.0160000
        k(   48) = (  -0.0500000   0.3500000   0.2500000), wk =   0.0320000
        k(   49) = (   0.3500000   0.0500000   0.2500000), wk =   0.0320000
        k(   50) = (  -0.0500000   0.4500000   0.2500000), wk =   0.0320000
        k(   51) = (   0.4500000   0.0500000   0.2500000), wk =   0.0320000
        k(   52) = (   0.3500000   0.0500000   0.3500000), wk =   0.0160000
        k(   53) = (  -0.0500000   0.4500000   0.3500000), wk =   0.0320000
        k(   54) = (   0.4500000   0.0500000   0.3500000), wk =   0.0320000
        k(   55) = (   0.4500000   0.0500000   0.4500000), wk =   0.0160000
        k(   56) = (  -0.1500000   0.2500000   0.1500000), wk =   0.0160000
        k(   57) = (  -0.1500000   0.3500000   0.1500000), wk =   0.0160000
        k(   58) = (  -0.1500000   0.4500000   0.1500000), wk =   0.0160000
        k(   59) = (   0.2500000   0.1500000   0.2500000), wk =   0.0160000
        k(   60) = (  -0.1500000   0.3500000   0.2500000), wk =   0.0320000
        k(   61) = (   0.3500000   0.1500000   0.2500000), wk =   0.0320000
        k(   62) = (  -0.1500000   0.4500000   0.2500000), wk =   0.0320000
        k(   63) = (   0.4500000   0.1500000   0.2500000), wk =   0.0320000
        k(   64) = (   0.3500000   0.1500000   0.3500000), wk =   0.0160000
        k(   65) = (  -0.1500000   0.4500000   0.3500000), wk =   0.0320000
        k(   66) = (   0.4500000   0.1500000   0.3500000), wk =   0.0320000
        k(   67) = (   0.4500000   0.1500000   0.4500000), wk =   0.0160000
        k(   68) = (  -0.2500000   0.3500000   0.2500000), wk =   0.0160000
        k(   69) = (  -0.2500000   0.4500000   0.2500000), wk =   0.0160000
        k(   70) = (   0.3500000   0.2500000   0.3500000), wk =   0.0160000
        k(   71) = (  -0.2500000   0.4500000   0.3500000), wk =   0.0320000
        k(   72) = (   0.4500000   0.2500000   0.3500000), wk =   0.0320000
        k(   73) = (   0.4500000   0.2500000   0.4500000), wk =   0.0160000
        k(   74) = (  -0.3500000   0.4500000   0.3500000), wk =   0.0160000
        k(   75) = (   0.4500000   0.3500000   0.4500000), wk =   0.0160000

     Dense  grid:   164415 G-vectors     FFT dimensions: (  72,  72,  72)

     Smooth grid:    41851 G-vectors     FFT dimensions: (  45,  45,  45)

     Estimated max dynamical RAM per process >     777.08 MB

     Check: negative core charge=   -0.000005

     Initial potential from superposition of free atoms

     starting charge   42.99760, renormalised to   44.00000
     Starting wfcs are   31 randomized atomic wfcs

     total cpu time spent up to now is       16.8 secs

     Self-consistent Calculation

     iteration #  1     ecut=    80.00 Ry     beta= 0.70
     Davidson diagonalization with overlap
     ethr =  1.00E-02,  avg # of iterations =  2.0

     total cpu time spent up to now is       47.8 secs

     total energy              =    -364.39172453 Ry
     Harris-Foulkes estimate   =    -365.28641546 Ry
     estimated scf accuracy    <       1.12229652 Ry

     iteration #  2     ecut=    80.00 Ry     beta= 0.70
     Davidson diagonalization with overlap
     ethr =  2.55E-03,  avg # of iterations =  4.1

     total cpu time spent up to now is       94.3 secs

     total energy              =    -363.18777986 Ry
     Harris-Foulkes estimate   =    -365.82626097 Ry
     estimated scf accuracy    <      10.31607033 Ry

     iteration #  3     ecut=    80.00 Ry     beta= 0.70
     Davidson diagonalization with overlap
     ethr =  2.55E-03,  avg # of iterations =  5.0

     total cpu time spent up to now is      142.0 secs

     total energy              =    -364.93015649 Ry
     Harris-Foulkes estimate   =    -365.10663547 Ry
     estimated scf accuracy    <       0.48016157 Ry

     iteration #  4     ecut=    80.00 Ry     beta= 0.70
     Davidson diagonalization with overlap
     ethr =  1.09E-03,  avg # of iterations =  2.3

     total cpu time spent up to now is      171.8 secs

     total energy              =    -364.91346738 Ry
     Harris-Foulkes estimate   =    -364.96548105 Ry
     estimated scf accuracy    <       0.18831945 Ry

     iteration #  5     ecut=    80.00 Ry     beta= 0.70
     Davidson diagonalization with overlap
     ethr =  4.28E-04,  avg # of iterations =  4.6

     total cpu time spent up to now is      211.4 secs

     total energy              =    -364.95351856 Ry
     Harris-Foulkes estimate   =    -364.95374873 Ry
     estimated scf accuracy    <       0.00105220 Ry

     iteration #  6     ecut=    80.00 Ry     beta= 0.70
     Davidson diagonalization with overlap
     c_bands:  1 eigenvalues not converged
     c_bands:  1 eigenvalues not converged
     c_bands:  1 eigenvalues not converged
     ethr =  2.39E-06,  avg # of iterations =  5.4

     total cpu time spent up to now is      265.4 secs

     total energy              =    -364.95399429 Ry
     Harris-Foulkes estimate   =    -364.95429214 Ry
     estimated scf accuracy    <       0.00117376 Ry

     iteration #  7     ecut=    80.00 Ry     beta= 0.70
     Davidson diagonalization with overlap
     ethr =  2.39E-06,  avg # of iterations =  2.9

     total cpu time spent up to now is      297.5 secs

     total energy              =    -364.95394461 Ry
     Harris-Foulkes estimate   =    -364.95418192 Ry
     estimated scf accuracy    <       0.00065183 Ry

     iteration #  8     ecut=    80.00 Ry     beta= 0.70
     Davidson diagonalization with overlap
     ethr =  1.48E-06,  avg # of iterations =  3.3

     total cpu time spent up to now is      332.9 secs

     total energy              =    -364.95407272 Ry
     Harris-Foulkes estimate   =    -364.95408999 Ry
     estimated scf accuracy    <       0.00006030 Ry

     iteration #  9     ecut=    80.00 Ry     beta= 0.70
     Davidson diagonalization with overlap
     ethr =  1.37E-07,  avg # of iterations =  2.8

     total cpu time spent up to now is      366.0 secs

     total energy              =    -364.95407075 Ry
     Harris-Foulkes estimate   =    -364.95408319 Ry
     estimated scf accuracy    <       0.00003314 Ry

     iteration # 10     ecut=    80.00 Ry     beta= 0.70
     Davidson diagonalization with overlap
     ethr =  7.53E-08,  avg # of iterations =  2.0

     total cpu time spent up to now is      396.5 secs

     total energy              =    -364.95407448 Ry
     Harris-Foulkes estimate   =    -364.95407506 Ry
     estimated scf accuracy    <       0.00000218 Ry

     iteration # 11     ecut=    80.00 Ry     beta= 0.70
     Davidson diagonalization with overlap
     ethr =  4.94E-09,  avg # of iterations =  3.6

     total cpu time spent up to now is      436.9 secs

     total energy              =    -364.95407543 Ry
     Harris-Foulkes estimate   =    -364.95407544 Ry
     estimated scf accuracy    <       0.00000007 Ry

     iteration # 12     ecut=    80.00 Ry     beta= 0.70
     Davidson diagonalization with overlap
     ethr =  1.53E-10,  avg # of iterations =  3.6

     total cpu time spent up to now is      473.6 secs

     total energy              =    -364.95407544 Ry
     Harris-Foulkes estimate   =    -364.95407545 Ry
     estimated scf accuracy    <       0.00000003 Ry

     iteration # 13     ecut=    80.00 Ry     beta= 0.70
     Davidson diagonalization with overlap
     ethr =  6.02E-11,  avg # of iterations =  3.0

     total cpu time spent up to now is      509.4 secs

     End of self-consistent calculation

          k = 0.0500 0.0500 0.0500 (  5203 PWs)   bands (ev):

   -46.5161 -22.8395 -22.7451 -22.7451  -7.4754  -6.5416  -6.4222  -5.4752
    -5.4575  -5.4573  -5.3199  -5.3004   4.0428   6.5267   6.5707   6.6979
     8.4238   8.4496   8.8483   8.8976   9.1569   9.1850  12.0973  12.5670
    12.5765  14.1948

          k = 0.0500 0.0500 0.1500 (  5193 PWs)   bands (ev):

   -46.5159 -22.8391 -22.7545 -22.7447  -7.3995  -6.5084  -6.3950  -5.4820
    -5.4645  -5.4569  -5.3484  -5.3010   3.7751   6.5796   6.6525   6.8536
     8.2174   8.4037   8.7588   8.8472   9.0283   9.1529  12.4021  12.5767
    12.6532  14.3960

          k = 0.0500 0.0500 0.2500 (  5198 PWs)   bands (ev):

   -46.5156 -22.8386 -22.7697 -22.7442  -7.2729  -6.4493  -6.3519  -5.4933
    -5.4759  -5.4561  -5.4029  -5.2984   3.4340   6.5748   6.7612   6.8935
     8.1047   8.2141   8.6673   8.7712   8.9493   9.2097  12.5774  12.8461
    12.9585  14.4015

          k = 0.0500 0.0500 0.3500 (  5189 PWs)   bands (ev):

   -46.5153 -22.8380 -22.7848 -22.7437  -7.1409  -6.3798  -6.3125  -5.5093
    -5.4895  -5.4573  -5.4553  -5.2973   3.1621   6.2414   6.9445   7.0645
     7.8521   7.9692   8.6126   8.6899   9.0437   9.5477  12.5782  13.2468
    13.3383  13.7880

          k = 0.0500 0.0500 0.4500 (  5201 PWs)   bands (ev):

   -46.5151 -22.8376 -22.7941 -22.7433  -7.0563  -6.3224  -6.2980  -5.5341
    -5.5002  -5.4782  -5.4549  -5.2979   3.0190   5.9774   7.1438   7.3167
     7.5732   7.6640   8.6058   8.6615   9.0972   9.9580  12.5622  13.1002
    13.4835  13.6018

          k = 0.0500 0.1500 0.1500 (  5199 PWs)   bands (ev):

   -46.5157 -22.8488 -22.7541 -22.7444  -7.3102  -6.4905  -6.3680  -5.4820
    -5.4741  -5.4630  -5.3403  -5.3226   3.5715   6.5356   6.6400   7.0066
     7.9995   8.2283   8.6083   8.9031   8.9887   9.2453  12.4025  12.8134
    12.8724  14.4941

          k = 0.0500 0.1500 0.2500 (  5203 PWs)   bands (ev):

   -46.5154 -22.8482 -22.7693 -22.7438  -7.1880  -6.4388  -6.3329  -5.4963
    -5.4831  -5.4626  -5.3716  -5.3143   3.2981   6.4893   6.7583   6.9586
     7.8540   8.0728   8.4940   8.7328   8.9488   9.3849  12.7928  12.8653
    13.1230  14.5412

          k = 0.0500 0.1500 0.3500 (  5198 PWs)   bands (ev):

   -46.5151 -22.8476 -22.7844 -22.7433  -7.0625  -6.3846  -6.2951  -5.5133
    -5.4918  -5.4622  -5.3977  -5.3126   3.0661   6.2270   6.8695   7.0289
     7.6217   7.9261   8.4296   8.7191   8.9293   9.6012  12.8073  13.2409
    13.4529  13.9492

          k = 0.0500 0.1500 0.4500 (  5194 PWs)   bands (ev):

   -46.5149 -22.8472 -22.7937 -22.7430  -6.9835  -6.3500  -6.2695  -5.5271
    -5.4999  -5.4619  -5.4060  -5.3164   2.9398   5.9800   6.9959   7.1836
     7.4434   7.6823   8.4566   8.7889   8.8991   9.7747  12.7882  13.4618
    13.4926  13.6889

          k = 0.0500 0.2500 0.2500 (  5197 PWs)   bands (ev):

   -46.5151 -22.8637 -22.7686 -22.7433  -7.0484  -6.4264  -6.2922  -5.4998
    -5.4876  -5.4691  -5.3506  -5.3262   3.0907   6.3558   6.7510   6.8828
     7.6401   7.8067   8.2743   8.7230   9.1151   9.5227  12.8273  13.1865
    13.3856  14.5021

          k = 0.0500 0.2500 0.3500 (  5201 PWs)   bands (ev):

   -46.5148 -22.8631 -22.7837 -22.7427  -6.9424  -6.3932  -6.2453  -5.5091
    -5.4908  -5.4704  -5.3607  -5.3058   2.9129   6.1856   6.6370   6.9716
     7.4408   7.7727   8.1899   8.5325   9.2131   9.5205  13.1503  13.2444
    13.6319  14.2348

          k = 0.0500 0.2500 0.4500 (  5204 PWs)   bands (ev):

   -46.5146 -22.8626 -22.7929 -22.7424  -6.8810  -6.3725  -6.2075  -5.5148
    -5.4982  -5.4716  -5.3543  -5.3025   2.8115   5.9727   6.6611   6.9869
     7.3372   7.7918   8.1194   8.5252   9.2208   9.4844  13.1598  13.4531
    13.8202  14.0556

          k = 0.0500 0.3500 0.3500 (  5205 PWs)   bands (ev):

   -46.5145 -22.8785 -22.7829 -22.7421  -6.8423  -6.3717  -6.1875  -5.5081
    -5.4937  -5.4721  -5.3844  -5.2495   2.7638   5.9943   6.3972   6.9614
     7.3698   7.6286   8.0721   8.4847   9.1535   9.5884  13.1989  13.5364
    13.8166  14.5397

          k = 0.0500 0.3500 0.4500 (  5210 PWs)   bands (ev):

   -46.5143 -22.8780 -22.7922 -22.7418  -6.8141  -6.3419  -6.1380  -5.5089
    -5.4969  -5.4753  -5.3923  -5.2167   2.6839   5.8871   6.2626   7.0393
     7.1851   7.8086   7.9916   8.3558   8.9465   9.6619  13.4249  13.5318
    13.9740  14.5934

          k = 0.0500 0.4500 0.4500 (  5220 PWs)   bands (ev):

   -46.5142 -22.8875 -22.7917 -22.7414  -6.7955  -6.2920  -6.0902  -5.5116
    -5.4963  -5.4745  -5.4177  -5.1678   2.6058   5.7002   6.1584   7.0157
     7.1805   7.7505   8.0404   8.2886   8.6277   9.8326  13.4085  13.7564
    14.0798  14.9341

          k = 0.1500 0.1500 0.1500 (  5209 PWs)   bands (ev):

   -46.5155 -22.8484 -22.7539 -22.7537  -7.2398  -6.4665  -6.3472  -5.4893
    -5.4793  -5.4624  -5.3396  -5.3225   3.4345   6.5128   6.5629   7.1081
     7.8548   8.0032   8.5682   8.9666   9.1023   9.1153  12.6176  12.8518
    12.8894  14.9664

          k = 0.1500 0.1500 0.2500 (  5204 PWs)   bands (ev):

   -46.5152 -22.8478 -22.7689 -22.7532  -7.1260  -6.4249  -6.3123  -5.5018
    -5.4807  -5.4587  -5.3552  -5.3146   3.2258   6.4547   6.5633   6.9772
     7.6449   7.8098   8.6007   8.8748   9.0517   9.2984  12.8149  12.9812
    13.1188  14.6511

          k = 0.1500 0.1500 0.3500 (  5201 PWs)   bands (ev):

   -46.5149 -22.8472 -22.7840 -22.7526  -7.0136  -6.3795  -6.2748  -5.5132
    -5.4740  -5.4525  -5.3772  -5.3127   3.0350   6.2274   6.5784   6.8852
     7.4402   7.8522   8.3856   8.9055   9.0609   9.4826  12.7624  13.2911
    13.4435  14.1595

          k = 0.1500 0.1500 0.4500 (  5202 PWs)   bands (ev):

   -46.5148 -22.8468 -22.7932 -22.7523  -6.9458  -6.3494  -6.2490  -5.5178
    -5.4688  -5.4455  -5.3920  -5.3175   2.9266   5.9851   6.5863   6.9325
     7.3387   7.9641   8.1479   8.9813   9.0419   9.5716  12.6995  13.4985
    13.6713  13.9230

          k = 0.1500 0.2500 0.2500 (  5194 PWs)   bands (ev):

   -46.5149 -22.8633 -22.7682 -22.7526  -6.9846  -6.4182  -6.2958  -5.5039
    -5.4897  -5.4453  -5.3324  -5.3090   3.0854   6.3094   6.4348   6.8088
     7.3735   7.6305   8.5231   8.9277   9.1591   9.3847  12.8619  13.1705
    13.3422  14.4651

          k = 0.1500 0.2500 0.3500 (  5205 PWs)   bands (ev):

   -46.5146 -22.8627 -22.7833 -22.7520  -6.8850  -6.4010  -6.2550  -5.5065
    -5.4795  -5.4356  -5.3344  -5.2905   2.9565   6.1644   6.4037   6.5996
     7.0782   7.6726   8.5656   8.7513   9.2060   9.3932  12.9945  13.2739
    13.5755  14.4212

          k = 0.1500 0.2500 0.4500 (  5198 PWs)   bands (ev):

   -46.5145 -22.8623 -22.7925 -22.7517  -6.8286  -6.3943  -6.2184  -5.5054
    -5.4703  -5.4328  -5.3279  -5.2890   2.8779   5.9717   6.3807   6.5393
     6.9802   7.7687   8.3939   8.8314   9.1186   9.3881  13.0065  13.4442
    13.7659  14.4493

          k = 0.1500 0.3500 0.3500 (  5197 PWs)   bands (ev):

   -46.5143 -22.8781 -22.7826 -22.7514  -6.7730  -6.3980  -6.2326  -5.5038
    -5.4732  -5.4148  -5.3417  -5.2340   2.8652   5.9666   6.3098   6.3763
     6.8120   7.6399   8.4107   8.7774   9.0425   9.5513  13.1180  13.4486
    13.7373  14.7169

          k = 0.1500 0.3500 0.4500 (  5196 PWs)   bands (ev):

   -46.5142 -22.8776 -22.7918 -22.7510  -6.7443  -6.3902  -6.1878  -5.4998
    -5.4553  -5.4190  -5.3425  -5.2015   2.8147   5.8742   6.1960   6.3734
     6.6097   7.7103   8.3388   8.6901   8.8491   9.6528  13.3465  13.4426
    13.8827  14.9315

          k = 0.1500 0.4500 0.4500 (  5198 PWs)   bands (ev):

   -46.5140 -22.8871 -22.7913 -22.7507  -6.7204  -6.3526  -6.1697  -5.4976
    -5.4377  -5.4035  -5.3641  -5.1513   2.7691   5.6839   6.1175   6.3561
     6.4962   7.7106   8.0736   8.5961   8.8134   9.8151  13.3953  13.6379
    13.9791  15.2627

          k = 0.2500 0.2500 0.2500 (  5184 PWs)   bands (ev):

   -46.5146 -22.8627 -22.7678 -22.7675  -6.8900  -6.4022  -6.2937  -5.4943
    -5.4898  -5.4152  -5.3097  -5.2836   3.0608   6.1473   6.2266   6.6536
     7.1481   7.2180   8.6748   9.1394   9.1792   9.3174  12.8690  13.3095
    13.3190  14.4936

          k = 0.2500 0.2500 0.3500 (  5197 PWs)   bands (ev):

   -46.5143 -22.8621 -22.7826 -22.7670  -6.8114  -6.3896  -6.2691  -5.4889
    -5.4749  -5.3800  -5.2923  -5.2659   3.0175   6.0212   6.0879   6.3532
     6.8756   7.1811   8.5248   9.0981   9.2074   9.4545  12.9438  13.3616
    13.5594  14.6868

          k = 0.2500 0.2500 0.4500 (  5185 PWs)   bands (ev):

   -46.5142 -22.8617 -22.7918 -22.7666  -6.7732  -6.3877  -6.2362  -5.4850
    -5.4638  -5.3467  -5.2869  -5.2621   2.9828   5.9278   5.9823   6.1744
     6.8044   7.2215   8.3003   9.1248   9.1650   9.5117  13.0492  13.4425
    13.7467  14.9260

          k = 0.2500 0.3500 0.3500 (  5195 PWs)   bands (ev):

   -46.5140 -22.8774 -22.7819 -22.7664  -6.6758  -6.4205  -6.2930  -5.4827
    -5.4576  -5.3413  -5.2668  -5.2048   3.0411   5.7808   5.9269   6.1363
     6.5770   7.0697   8.0744   9.1740   9.3696   9.5479  13.0892  13.4960
    13.6875  15.0107

          k = 0.2500 0.3500 0.4500 (  5190 PWs)   bands (ev):

   -46.5139 -22.8770 -22.7912 -22.7660  -6.6492  -6.4357  -6.2555  -5.4764
    -5.4426  -5.3165  -5.2541  -5.1728   3.0568   5.7672   5.8126   5.9531
     6.3928   7.0961   7.7248   9.1937   9.3595   9.6570  13.3244  13.4806
    13.8269  15.3424

          k = 0.2500 0.4500 0.4500 (  5192 PWs)   bands (ev):

   -46.5137 -22.8865 -22.7907 -22.7656  -6.6002  -6.4317  -6.2676  -5.4727
    -5.4263  -5.2964  -5.2357  -5.1203   3.0900   5.5808   5.7954   5.8680
     6.2161   7.0684   7.2756   9.1897   9.4049   9.7984  13.4541  13.6144
    13.9149  15.6722

          k = 0.3500 0.3500 0.3500 (  5196 PWs)   bands (ev):

   -46.5137 -22.8768 -22.7814 -22.7813  -6.6231  -6.4060  -6.3309  -5.4607
    -5.4470  -5.2709  -5.1994  -5.1688   3.2310   5.5322   5.6360   5.9853
     6.5194   6.5921   7.4581   9.4418   9.5406   9.6809  13.2500  13.6618
    13.6633  15.3709

          k = 0.3500 0.3500 0.4500 (  5196 PWs)   bands (ev):

   -46.5136 -22.8764 -22.7905 -22.7809  -6.6184  -6.4056  -6.3127  -5.4512
    -5.4372  -5.2223  -5.1706  -5.1393   3.3525   5.4381   5.4913   5.8279
     6.3600   6.5682   6.9856   9.4981   9.6115   9.7935  13.4721  13.6186
    13.8155  15.7418

          k = 0.3500 0.4500 0.4500 (  5191 PWs)   bands (ev):

   -46.5134 -22.8858 -22.7901 -22.7806  -6.5196  -6.4586  -6.3455  -5.4482
    -5.4226  -5.1959  -5.1239  -5.0828   3.5445   5.2764   5.4310   5.6723
     6.1767   6.3821   6.5409   9.5905   9.7721   9.7974  13.6215  13.7297
    13.8851  16.0970

          k = 0.4500 0.4500 0.4500 (  5214 PWs)   bands (ev):

   -46.5132 -22.8854 -22.7897 -22.7897  -6.5467  -6.3978  -6.3842  -5.4345
    -5.4192  -5.1367  -5.0615  -5.0553   4.0147   5.1041   5.1855   5.5821
     5.6534   6.1643   6.2920   9.7696   9.7829   9.9507  13.7894  13.8606
    13.8644  16.4433

          k =-0.0500 0.1500 0.0500 (  5193 PWs)   bands (ev):

   -46.5159 -22.8492 -22.7447 -22.7447  -7.3843  -6.5213  -6.3890  -5.4747
    -5.4656  -5.4632  -5.3350  -5.3169   3.7682   6.5710   6.5754   6.8578
     8.2433   8.2670   8.7563   8.8348   9.1867   9.2123  12.0992  12.8030
    12.8212  14.1972

          k =-0.0500 0.2500 0.0500 (  5198 PWs)   bands (ev):

   -46.5156 -22.8648 -22.7442 -22.7441  -7.2279  -6.4930  -6.3297  -5.4807
    -5.4740  -5.4718  -5.3944  -5.3138   3.4138   6.5208   6.6591   6.8059
     7.9976   8.0205   8.7846   8.8623   9.2608   9.3128  12.1021  13.1683
    13.1948  14.2018

          k =-0.0500 0.3500 0.0500 (  5189 PWs)   bands (ev):

   -46.5153 -22.8804 -22.7436 -22.7436  -7.0555  -6.4751  -6.2609  -5.5073
    -5.4795  -5.4730  -5.4517  -5.3132   3.1274   6.1488   6.7525   6.8751
     7.7764   7.7820   8.7237   9.1005   9.3133   9.6550  12.1040  13.5192
    13.5520  13.8726

          k =-0.0500 0.4500 0.0500 (  5201 PWs)   bands (ev):

   -46.5151 -22.8899 -22.7432 -22.7432  -6.9351  -6.4747  -6.2111  -5.5437
    -5.4835  -5.4745  -5.4725  -5.3142   2.9748   5.8568   6.8192   6.9746
     7.6152   7.6423   8.6841   9.1952   9.3479  10.0804  12.1025  13.1547
    13.7296  13.7707

          k = 0.1500 0.0500 0.1500 (  5199 PWs)   bands (ev):

   -46.5157 -22.8388 -22.7543 -22.7540  -7.3281  -6.4811  -6.3662  -5.4886
    -5.4648  -5.4626  -5.3503  -5.3145   3.5804   6.5333   6.7182   6.9883
     8.0388   8.1876   8.6208   8.8853   9.0654   9.1618  12.5943  12.6632
    12.6878  14.7362

          k =-0.0500 0.2500 0.1500 (  5203 PWs)   bands (ev):

   -46.5154 -22.8644 -22.7535 -22.7438  -7.1588  -6.4656  -6.3201  -5.4921
    -5.4807  -5.4698  -5.3626  -5.3281   3.2851   6.4288   6.6890   6.9413
     7.7506   8.0055   8.5118   8.9334   9.0501   9.4341  12.4010  13.1718
    13.2189  14.5144

          k = 0.2500 0.0500 0.1500 (  5203 PWs)   bands (ev):

   -46.5154 -22.8382 -22.7693 -22.7536  -7.2117  -6.4306  -6.3203  -5.4978
    -5.4730  -5.4626  -5.3798  -5.3165   3.3080   6.5148   6.7610   6.9687
     7.8406   7.9435   8.5606   8.8570   9.0585   9.2755  12.6391  12.9376
    13.0255  14.7506

          k =-0.0500 0.3500 0.1500 (  5198 PWs)   bands (ev):

   -46.5151 -22.8799 -22.7529 -22.7432  -6.9953  -6.4477  -6.2660  -5.5153
    -5.4803  -5.4748  -5.3933  -5.3269   3.0388   6.1111   6.7011   6.9609
     7.5514   7.8043   8.5966   8.9223   9.1139   9.7070  12.3935  13.5102
    13.5575  14.0500

          k = 0.3500 0.0500 0.1500 (  5198 PWs)   bands (ev):

   -46.5151 -22.8376 -22.7844 -22.7530  -7.0954  -6.3660  -6.2786  -5.5114
    -5.4776  -5.4622  -5.4176  -5.3153   3.0758   6.2448   6.8005   7.0852
     7.5862   7.9317   8.2839   8.9079   9.0740   9.5561  12.6189  13.3030
    13.3833  14.0071

          k =-0.0500 0.4500 0.1500 (  5194 PWs)   bands (ev):

   -46.5149 -22.8895 -22.7525 -22.7429  -6.8849  -6.4426  -6.2288  -5.5367
    -5.4804  -5.4790  -5.4037  -5.3310   2.9030   5.8354   6.7122   7.0580
     7.4270   7.6616   8.6974   8.9003   9.1542   9.9184  12.3804  13.5327
    13.7399  13.7890

          k = 0.4500 0.0500 0.1500 (  5194 PWs)   bands (ev):

   -46.5149 -22.8372 -22.7937 -22.7526  -7.0244  -6.3080  -6.2640  -5.5259
    -5.4804  -5.4619  -5.4361  -5.3173   2.9489   5.9849   6.9178   7.1647
     7.5224   7.7535   8.1932   8.8996   9.1085   9.8037  12.5754  13.5175
    13.5466  13.6252

          k = 0.2500 0.0500 0.2500 (  5197 PWs)   bands (ev):

   -46.5151 -22.8376 -22.7689 -22.7685  -7.1188  -6.3878  -6.2687  -5.4969
    -5.4752  -5.4672  -5.3550  -5.3436   3.1151   6.4774   6.6790   6.9804
     7.5341   7.6549   8.6299   8.6687   9.2671   9.3160  12.8633  12.9930
    13.2766  14.6143

          k =-0.0500 0.3500 0.2500 (  5201 PWs)   bands (ev):

   -46.5148 -22.8792 -22.7680 -22.7427  -6.9087  -6.4095  -6.2447  -5.5101
    -5.4897  -5.4725  -5.3640  -5.3080   2.8986   6.0596   6.6638   6.8835
     7.4645   7.7269   8.1577   8.7724   9.1666   9.6231  12.8146  13.5374
    13.6387  14.3226

          k = 0.3500 0.0500 0.2500 (  5201 PWs)   bands (ev):

   -46.5148 -22.8370 -22.7837 -22.7680  -7.0365  -6.3212  -6.2200  -5.5017
    -5.4767  -5.4682  -5.3673  -5.3376   2.9365   6.2503   6.5990   6.9829
     7.3683   7.6396   8.2982   8.7694   9.2531   9.5114  12.8859  13.3091
    13.5424  14.2998

          k =-0.0500 0.4500 0.2500 (  5204 PWs)   bands (ev):

   -46.5146 -22.8887 -22.7676 -22.7423  -6.8258  -6.3897  -6.2143  -5.5229
    -5.4892  -5.4780  -5.3645  -5.3007   2.7876   5.7971   6.6548   6.8684
     7.4148   7.6643   8.1719   8.8176   9.1303   9.6688  12.8034  13.7507
    13.7878  14.2143

          k = 0.4500 0.0500 0.2500 (  5204 PWs)   bands (ev):

   -46.5146 -22.8367 -22.7930 -22.7676  -6.9927  -6.2559  -6.2007  -5.5104
    -5.4780  -5.4719  -5.3608  -5.3426   2.8336   5.9888   6.6880   6.8561
     7.4093   7.7610   7.9840   8.8565   9.1771   9.6327  12.8639  13.5537
    13.7232  14.1008

          k = 0.3500 0.0500 0.3500 (  5205 PWs)   bands (ev):

   -46.5145 -22.8365 -22.7831 -22.7829  -6.9975  -6.2425  -6.1597  -5.4965
    -5.4815  -5.4658  -5.3855  -5.2996   2.7996   6.1692   6.3540   6.9385
     7.1071   7.6622   8.3304   8.5078   9.1692   9.6669  13.2064  13.3466
    13.7241  14.5439

          k =-0.0500 0.4500 0.3500 (  5210 PWs)   bands (ev):

   -46.5143 -22.8880 -22.7825 -22.7417  -6.7984  -6.3320  -6.1501  -5.5135
    -5.4947  -5.4756  -5.3974  -5.2154   2.6743   5.7506   6.3646   6.8990
     7.3787   7.6206   8.0026   8.5076   8.9378   9.7086  13.1897  13.7576
    13.9477  14.7373

          k = 0.4500 0.0500 0.3500 (  5210 PWs)   bands (ev):

   -46.5143 -22.8361 -22.7923 -22.7826  -6.9828  -6.1681  -6.1299  -5.4992
    -5.4796  -5.4727  -5.3975  -5.2719   2.7169   5.9426   6.3624   6.8186
     7.0773   7.8266   8.0922   8.5324   8.9860   9.8086  13.2578  13.5487
    13.8542  14.6290

          k = 0.4500 0.0500 0.4500 (  5220 PWs)   bands (ev):

   -46.5142 -22.8357 -22.7918 -22.7918  -6.9850  -6.0963  -6.0838  -5.4981
    -5.4769  -5.4720  -5.4270  -5.2287   2.6447   5.8214   6.2518   6.8488
     6.8682   7.9741   8.1647   8.2768   8.7434   9.9762  13.5274  13.5537
    13.9391  14.8667

          k =-0.1500 0.2500 0.1500 (  5204 PWs)   bands (ev):

   -46.5152 -22.8640 -22.7533 -22.7531  -7.0910  -6.4454  -6.3154  -5.5002
    -5.4882  -5.4569  -5.3390  -5.3289   3.2114   6.4245   6.4663   6.9881
     7.6575   7.8224   8.4186   9.0191   9.1572   9.3174  12.5897  13.1674
    13.2237  14.6751

          k =-0.1500 0.3500 0.1500 (  5201 PWs)   bands (ev):

   -46.5149 -22.8795 -22.7526 -22.7525  -6.9325  -6.4293  -6.2819  -5.5185
    -5.4852  -5.4434  -5.3600  -5.3275   3.0056   6.1128   6.4035   6.9173
     7.5297   7.7993   8.2749   9.0325   9.2046   9.5632  12.5303  13.4950
    13.5296  14.2075

          k =-0.1500 0.4500 0.1500 (  5202 PWs)   bands (ev):

   -46.5148 -22.8890 -22.7522 -22.7521  -6.8274  -6.4238  -6.2602  -5.5282
    -5.4831  -5.4277  -5.3755  -5.3342   2.8876   5.8377   6.3573   6.9673
     7.4745   7.7669   8.2411   9.0286   9.2335   9.6799  12.4769  13.7042
    13.7212  13.9974

          k = 0.2500 0.1500 0.2500 (  5194 PWs)   bands (ev):

   -46.5149 -22.8472 -22.7684 -22.7681  -7.0324  -6.3935  -6.2782  -5.4995
    -5.4862  -5.4442  -5.3361  -5.3170   3.1013   6.3628   6.4717   6.8020
     7.3087   7.6034   8.6933   8.9172   9.1721   9.2840  12.9166  13.0965
    13.2523  14.4762

          k =-0.1500 0.3500 0.2500 (  5205 PWs)   bands (ev):

   -46.5146 -22.8788 -22.7676 -22.7520  -6.8421  -6.4088  -6.2777  -5.5104
    -5.4860  -5.4240  -5.3359  -5.2927   2.9408   6.0542   6.2996   6.6371
     7.2483   7.6359   8.3075   9.0238   9.2067   9.4394  12.8002  13.4697
    13.5823  14.4532

          k = 0.3500 0.1500 0.2500 (  5205 PWs)   bands (ev):

   -46.5146 -22.8466 -22.7833 -22.7677  -6.9510  -6.3479  -6.2417  -5.5010
    -5.4791  -5.4238  -5.3345  -5.3157   2.9724   6.2102   6.3783   6.5784
     7.1241   7.5908   8.5660   8.9143   9.1345   9.4494  12.8944  13.3114
    13.5118  14.4307

          k =-0.1500 0.4500 0.2500 (  5198 PWs)   bands (ev):

   -46.5145 -22.8883 -22.7672 -22.7516  -6.7565  -6.3959  -6.2679  -5.5134
    -5.4819  -5.4036  -5.3457  -5.2852   2.8519   5.8050   6.1954   6.6339
     7.2321   7.7110   8.1371   9.0725   9.1616   9.4560  12.7788  13.6823
    13.7597  14.5314

          k = 0.4500 0.1500 0.2500 (  5198 PWs)   bands (ev):

   -46.5145 -22.8462 -22.7925 -22.7673  -6.9086  -6.3124  -6.2162  -5.5009
    -5.4726  -5.4053  -5.3352  -5.3221   2.8931   5.9847   6.3222   6.5431
     7.0853   7.6457   8.3981   8.9665   9.0432   9.5220  12.8769  13.4992
    13.7100  14.4609

          k = 0.3500 0.1500 0.3500 (  5197 PWs)   bands (ev):

   -46.5143 -22.8460 -22.7827 -22.7825  -6.9120  -6.2861  -6.2079  -5.4921
    -5.4726  -5.4009  -5.3308  -5.2839   2.8967   6.1459   6.2111   6.3748
     6.7680   7.5649   8.5703   8.8080   8.9493   9.6697  13.1144  13.3611
    13.6652  14.7050

          k =-0.1500 0.4500 0.3500 (  5196 PWs)   bands (ev):

   -46.5142 -22.8876 -22.7821 -22.7510  -6.7232  -6.3697  -6.2210  -5.5029
    -5.4650  -5.3907  -5.3618  -5.1995   2.8039   5.7373   6.2406   6.3040
     6.7883   7.6650   8.2136   8.7484   8.9438   9.6656  13.1476  13.6530
    13.8705  15.0024

          k = 0.4500 0.1500 0.3500 (  5196 PWs)   bands (ev):

   -46.5142 -22.8456 -22.7918 -22.7822  -6.8989  -6.2366  -6.1841  -5.4888
    -5.4615  -5.3853  -5.3414  -5.2577   2.8449   5.9336   6.2185   6.2774
     6.6561   7.5986   8.4063   8.7584   8.8597   9.7998  13.2148  13.4914
    13.8049  14.9407

          k = 0.4500 0.1500 0.4500 (  5198 PWs)   bands (ev):

   -46.5140 -22.8453 -22.7914 -22.7914  -6.9030  -6.1757  -6.1643  -5.4841
    -5.4426  -5.3714  -5.3597  -5.2147   2.8079   5.8106   6.1877   6.2720
     6.3727   7.6184   8.1862   8.7404   8.7475   9.9713  13.4649  13.5084
    13.8928  15.2420

          k =-0.2500 0.3500 0.2500 (  5197 PWs)   bands (ev):

   -46.5143 -22.8781 -22.7671 -22.7669  -6.7461  -6.4077  -6.3095  -5.4959
    -5.4760  -5.3780  -5.2936  -5.2565   2.9993   5.9272   6.0506   6.3579
     7.0810   7.0971   8.4089   9.1666   9.2978   9.3823  12.8718  13.4653
    13.5749  14.6966

          k =-0.2500 0.4500 0.2500 (  5185 PWs)   bands (ev):

   -46.5142 -22.8876 -22.7667 -22.7665  -6.6595  -6.4064  -6.3192  -5.4947
    -5.4673  -5.3377  -5.3001  -5.2419   2.9524   5.7965   5.8217   6.3074
     7.0594   7.1191   8.1768   9.1240   9.3264   9.4332  12.9247  13.6158
    13.7636  14.9715

          k = 0.3500 0.2500 0.3500 (  5195 PWs)   bands (ev):

   -46.5140 -22.8614 -22.7821 -22.7819  -6.7704  -6.3483  -6.2742  -5.4707
    -5.4655  -5.3262  -5.2488  -5.2464   3.0616   5.8644   5.8661   6.1473
     6.6243   6.9738   8.1100   9.2118   9.2581   9.6749  13.0911  13.4657
    13.6504  15.0042

          k =-0.2500 0.4500 0.3500 (  5190 PWs)   bands (ev):

   -46.5139 -22.8869 -22.7815 -22.7660  -6.6051  -6.4214  -6.3086  -5.4796
    -5.4446  -5.3103  -5.2589  -5.1681   3.0428   5.6119   5.8280   6.0035
     6.5160   7.0532   7.7120   9.1673   9.4075   9.6433  13.2121  13.6154
    13.8268  15.3604

          k = 0.4500 0.2500 0.3500 (  5190 PWs)   bands (ev):

   -46.5139 -22.8611 -22.7912 -22.7816  -6.7608  -6.3279  -6.2541  -5.4659
    -5.4519  -5.2805  -5.2472  -5.2216   3.0781   5.7338   5.8478   5.9253
     6.5072   6.9705   7.7623   9.2428   9.2626   9.7946  13.2796  13.4982
    13.7903  15.3380

          k = 0.4500 0.2500 0.4500 (  5192 PWs)   bands (ev):

   -46.5137 -22.8607 -22.7908 -22.7908  -6.7687  -6.2738  -6.2631  -5.4594
    -5.4378  -5.2423  -5.2310  -5.1868   3.1276   5.6955   5.7211   5.8029
     6.2912   6.9426   7.3505   9.2758   9.2804   9.9633  13.4927  13.5514
    13.8619  15.6546

          k =-0.3500 0.4500 0.3500 (  5196 PWs)   bands (ev):

   -46.5136 -22.8862 -22.7810 -22.7809  -6.5184  -6.4515  -6.3627  -5.4581
    -5.4321  -5.2397  -5.1659  -5.1237   3.3316   5.3474   5.6288   5.7563
     6.3767   6.5849   6.9795   9.5244   9.6613   9.6860  13.4164  13.6935
    13.8258  15.7440

          k = 0.4500 0.3500 0.4500 (  5191 PWs)   bands (ev):

   -46.5134 -22.8760 -22.7901 -22.7901  -6.6326  -6.3531  -6.3418  -5.4356
    -5.4346  -5.1627  -5.1225  -5.1190   3.5746   5.3157   5.3182   5.7102
     6.2903   6.3834   6.4461   9.6196   9.6289   9.9555  13.6497  13.7120
    13.8493  16.0923

     the Fermi energy is    10.0280 ev

!    total energy              =    -364.95407544 Ry
     Harris-Foulkes estimate   =    -364.95407545 Ry
     estimated scf accuracy    <          3.2E-09 Ry

     The total energy is the sum of the following terms:

     one-electron contribution =     -86.78154775 Ry
     hartree contribution      =      72.16490413 Ry
     xc contribution           =     -85.75616492 Ry
     ewald contribution        =    -264.58760240 Ry
     smearing contrib. (-TS)   =       0.00633549 Ry

     convergence has been achieved in  13 iterations

     Forces acting on atoms (cartesian axes, Ry/au):

     atom    1 type  1   force =     0.00000000    0.01750044    0.00000000
     atom    2 type  2   force =     0.00000000   -0.03016628    0.00000000
     atom    3 type  3   force =     0.00000000    0.00507503    0.00000000
     atom    4 type  3   force =     0.00000000    0.00251578    0.00000000
     atom    5 type  3   force =     0.00000000    0.00507503    0.00000000

     Total force =     0.031110     Total SCF correction =     0.000051


     Computing stress (Cartesian axis) and pressure

          total   stress  (Ry/bohr**3)                   (kbar)     P=  -20.22
  -0.00022875   0.00000000   0.00000000        -33.65      0.00      0.00
   0.00000000   0.00004520   0.00000000          0.00      6.65      0.00
   0.00000000   0.00000000  -0.00022875          0.00      0.00    -33.65


     BFGS Geometry Optimization

     number of scf cycles    =   1
     number of bfgs steps    =   0

     energy   new            =    -364.9540754425 Ry

     new trust radius        =       0.0301662832 bohr
     new conv_thr            =       0.0000000100 Ry


ATOMIC_POSITIONS (crystal)
Pb       0.000000000   0.000000000   0.000000000    0   0   0
Ti       0.500000000   0.544004466   0.500000000
O        0.500000000   0.500672190   0.000000000
O        0.500000000   0.000333216   0.500000000
O        0.000000000   0.500672190   0.500000000



     Writing output data file PbTiO3.save/
     NEW-OLD atomic charge density approx. for the potential

     Check: negative core charge=   -0.000005

     total cpu time spent up to now is      532.1 secs

     Self-consistent Calculation

     iteration #  1     ecut=    80.00 Ry     beta= 0.70
     Davidson diagonalization with overlap
     ethr =  1.00E-06,  avg # of iterations =  4.6

     total cpu time spent up to now is      597.2 secs

     total energy              =    -364.95483136 Ry
     Harris-Foulkes estimate   =    -364.95495370 Ry
     estimated scf accuracy    <       0.00018836 Ry

     iteration #  2     ecut=    80.00 Ry     beta= 0.70
     Davidson diagonalization with overlap
     ethr =  4.28E-07,  avg # of iterations =  4.1

     total cpu time spent up to now is      639.2 secs

     total energy              =    -364.95479613 Ry
     Harris-Foulkes estimate   =    -364.95497955 Ry
     estimated scf accuracy    <       0.00044236 Ry

     iteration #  3     ecut=    80.00 Ry     beta= 0.70
     Davidson diagonalization with overlap
     ethr =  4.28E-07,  avg # of iterations =  3.5

     total cpu time spent up to now is      679.3 secs

     total energy              =    -364.95488935 Ry
     Harris-Foulkes estimate   =    -364.95491122 Ry
     estimated scf accuracy    <       0.00006538 Ry

     iteration #  4     ecut=    80.00 Ry     beta= 0.70
     Davidson diagonalization with overlap
     ethr =  1.49E-07,  avg # of iterations =  3.0

     total cpu time spent up to now is      712.9 secs

     total energy              =    -364.95489911 Ry
     Harris-Foulkes estimate   =    -364.95490022 Ry
     estimated scf accuracy    <       0.00000216 Ry

     iteration #  5     ecut=    80.00 Ry     beta= 0.70
     Davidson diagonalization with overlap
     ethr =  4.92E-09,  avg # of iterations =  3.3

     total cpu time spent up to now is      752.2 secs

     total energy              =    -364.95489962 Ry
     Harris-Foulkes estimate   =    -364.95490026 Ry
     estimated scf accuracy    <       0.00000173 Ry

     iteration #  6     ecut=    80.00 Ry     beta= 0.70
     Davidson diagonalization with overlap
     ethr =  3.92E-09,  avg # of iterations =  2.7

     total cpu time spent up to now is      785.1 secs

     total energy              =    -364.95489995 Ry
     Harris-Foulkes estimate   =    -364.95489999 Ry
     estimated scf accuracy    <       0.00000013 Ry

     iteration #  7     ecut=    80.00 Ry     beta= 0.70
     Davidson diagonalization with overlap
     ethr =  3.01E-10,  avg # of iterations =  2.8

     total cpu time spent up to now is      819.1 secs

     End of self-consistent calculation

          k = 0.0500 0.0500 0.0500 (  5203 PWs)   bands (ev):

   -46.5493 -22.8537 -22.7780 -22.7780  -7.4739  -6.5359  -6.4337  -5.4669
    -5.4521  -5.4518  -5.3139  -5.2978   4.0510   6.5294   6.5676   6.6903
     8.4894   8.5154   8.8528   8.9328   9.1664   9.1795  12.0733  12.4698
    12.4759  14.1553

          k = 0.0500 0.0500 0.1500 (  5193 PWs)   bands (ev):

   -46.5491 -22.8534 -22.7874 -22.7776  -7.3968  -6.5032  -6.4062  -5.4737
    -5.4590  -5.4514  -5.3429  -5.2977   3.7831   6.5805   6.6450   6.8495
     8.2740   8.4490   8.7858   8.8567   9.0316   9.1569  12.3796  12.4787
    12.5883  14.3319

          k = 0.0500 0.0500 0.2500 (  5198 PWs)   bands (ev):

   -46.5488 -22.8528 -22.8026 -22.7771  -7.2682  -6.4456  -6.3624  -5.4853
    -5.4702  -5.4507  -5.3974  -5.2945   3.4421   6.5692   6.7596   6.8836
     8.1292   8.2294   8.7037   8.7887   8.9661   9.2193  12.4787  12.8273
    12.9192  14.3371

          k = 0.0500 0.0500 0.3500 (  5189 PWs)   bands (ev):

   -46.5485 -22.8522 -22.8178 -22.7766  -7.1339  -6.3785  -6.3217  -5.5024
    -5.4827  -5.4517  -5.4498  -5.2931   3.1709   6.2261   6.9414   7.0530
     7.8537   7.9622   8.6559   8.7271   9.0742   9.5559  12.4799  13.2317
    13.3070  13.8021

          k = 0.0500 0.0500 0.4500 (  5201 PWs)   bands (ev):

   -46.5483 -22.8519 -22.8271 -22.7762  -7.0475  -6.3246  -6.3046  -5.5283
    -5.4918  -5.4729  -5.4494  -5.2935   3.0285   5.9543   7.1374   7.3064
     7.5725   7.6490   8.6277   8.7296   9.1282   9.9677  12.4689  13.1087
    13.4707  13.5689

          k = 0.0500 0.1500 0.1500 (  5199 PWs)   bands (ev):

   -46.5489 -22.8630 -22.7870 -22.7773  -7.3091  -6.4840  -6.3796  -5.4740
    -5.4682  -5.4575  -5.3354  -5.3184   3.5805   6.5362   6.6445   7.0030
     8.0385   8.2692   8.6320   8.9155   8.9864   9.2390  12.3810  12.7269
    12.8104  14.4488

          k = 0.0500 0.1500 0.2500 (  5203 PWs)   bands (ev):

   -46.5486 -22.8624 -22.8022 -22.7767  -7.1850  -6.4334  -6.3434  -5.4891
    -5.4761  -5.4571  -5.3665  -5.3105   3.3068   6.4877   6.7594   6.9538
     7.8656   8.0950   8.5116   8.7564   8.9628   9.3834  12.7175  12.8346
    13.0842  14.5101

          k = 0.0500 0.1500 0.3500 (  5198 PWs)   bands (ev):

   -46.5483 -22.8618 -22.8173 -22.7762  -7.0577  -6.3809  -6.3039  -5.5068
    -5.4840  -5.4567  -5.3932  -5.3084   3.0750   6.2143   6.8631   7.0284
     7.6203   7.9305   8.4479   8.7628   8.9448   9.6056  12.7197  13.2272
    13.4223  13.9611

          k = 0.0500 0.1500 0.4500 (  5194 PWs)   bands (ev):

   -46.5481 -22.8614 -22.8266 -22.7759  -6.9774  -6.3476  -6.2769  -5.5211
    -5.4914  -5.4564  -5.4018  -5.3118   2.9491   5.9580   6.9879   7.1793
     7.4494   7.6737   8.4873   8.8269   8.9166   9.7833  12.7033  13.4572
    13.4966  13.6582

          k = 0.0500 0.2500 0.2500 (  5197 PWs)   bands (ev):

   -46.5483 -22.8779 -22.8016 -22.7762  -7.0492  -6.4176  -6.3024  -5.4930
    -5.4799  -5.4635  -5.3449  -5.3231   3.1007   6.3672   6.7468   6.8870
     7.6500   7.8139   8.2946   8.7194   9.1368   9.5124  12.8105  13.1117
    13.3502  14.4943

          k = 0.0500 0.2500 0.3500 (  5201 PWs)   bands (ev):

   -46.5480 -22.8772 -22.8166 -22.7756  -6.9426  -6.3844  -6.2535  -5.5021
    -5.4830  -5.4648  -5.3555  -5.3030   2.9221   6.1826   6.6271   6.9773
     7.4474   7.7744   8.1937   8.5531   9.2371   9.5150  13.0852  13.2232
    13.6058  14.2393

          k = 0.0500 0.2500 0.4500 (  5204 PWs)   bands (ev):

   -46.5478 -22.8768 -22.8259 -22.7753  -6.8814  -6.3624  -6.2151  -5.5085
    -5.4898  -5.4662  -5.3495  -5.2997   2.8203   5.9552   6.6574   6.9800
     7.3622   7.7810   8.1164   8.5564   9.2397   9.4896  13.0854  13.4458
    13.7954  14.0639

          k = 0.0500 0.3500 0.3500 (  5205 PWs)   bands (ev):

   -46.5477 -22.8926 -22.8159 -22.7750  -6.8495  -6.3553  -6.1962  -5.5009
    -5.4858  -5.4664  -5.3788  -5.2474   2.7734   6.0110   6.3700   6.9798
     7.3685   7.6318   8.0805   8.4776   9.1709   9.5882  13.1902  13.4707
    13.7967  14.5315

          k = 0.0500 0.3500 0.4500 (  5210 PWs)   bands (ev):

   -46.5475 -22.8921 -22.8251 -22.7747  -6.8219  -6.3232  -6.1463  -5.5022
    -5.4885  -5.4699  -5.3870  -5.2149   2.6922   5.8868   6.2468   7.0358
     7.2081   7.8056   7.9862   8.3620   8.9592   9.6726  13.4196  13.4678
    13.9544  14.5969

          k = 0.0500 0.4500 0.4500 (  5220 PWs)   bands (ev):

   -46.5474 -22.9016 -22.8247 -22.7743  -6.8065  -6.2693  -6.0993  -5.5044
    -5.4877  -5.4693  -5.4120  -5.1665   2.6139   5.7120   6.1324   7.0372
     7.1701   7.7704   8.0287   8.2763   8.6412   9.8435  13.4088  13.6943
    14.0654  14.9201

          k = 0.1500 0.1500 0.1500 (  5209 PWs)   bands (ev):

   -46.5487 -22.8626 -22.7868 -22.7866  -7.2372  -6.4608  -6.3585  -5.4817
    -5.4735  -5.4566  -5.3334  -5.3193   3.4429   6.5197   6.5603   7.1080
     7.8858   8.0151   8.6148   8.9758   9.0849   9.1135  12.5987  12.7952
    12.8244  14.9294

          k = 0.1500 0.1500 0.2500 (  5204 PWs)   bands (ev):

   -46.5484 -22.8620 -22.8018 -22.7861  -7.1208  -6.4211  -6.3227  -5.4951
    -5.4744  -5.4525  -5.3492  -5.3108   3.2337   6.4564   6.5640   6.9765
     7.6611   7.8123   8.6257   8.8823   9.0636   9.2906  12.7626  12.9593
    13.0792  14.6564

          k = 0.1500 0.1500 0.3500 (  5201 PWs)   bands (ev):

   -46.5481 -22.8614 -22.8169 -22.7855  -7.0056  -6.3784  -6.2837  -5.5070
    -5.4679  -5.4456  -5.3714  -5.3085   3.0427   6.2157   6.5783   6.8862
     7.4462   7.8612   8.3793   8.9357   9.0752   9.4798  12.7066  13.2810
    13.4114  14.1635

          k = 0.1500 0.1500 0.4500 (  5202 PWs)   bands (ev):

   -46.5480 -22.8610 -22.8262 -22.7852  -6.9359  -6.3506  -6.2565  -5.5119
    -5.4631  -5.4374  -5.3869  -5.3130   2.9344   5.9635   6.5840   6.9391
     7.3400   7.9765   8.1396   9.0054   9.0603   9.5724  12.6451  13.4922
    13.6396  13.9277

          k = 0.1500 0.2500 0.2500 (  5194 PWs)   bands (ev):

   -46.5481 -22.8775 -22.8012 -22.7855  -6.9832  -6.4107  -6.3060  -5.4972
    -5.4828  -5.4391  -5.3263  -5.3061   3.0947   6.3218   6.4440   6.8052
     7.3714   7.6213   8.5675   8.9122   9.1762   9.3711  12.8499  13.1175
    13.3047  14.4629

          k = 0.1500 0.2500 0.3500 (  5205 PWs)   bands (ev):

   -46.5478 -22.8769 -22.8162 -22.7849  -6.8817  -6.3950  -6.2633  -5.5000
    -5.4732  -5.4282  -5.3289  -5.2877   2.9650   6.1644   6.4065   6.5934
     7.0861   7.6594   8.5677   8.7736   9.2232   9.3875  12.9557  13.2534
    13.5450  14.4190

          k = 0.1500 0.2500 0.4500 (  5198 PWs)   bands (ev):

   -46.5477 -22.8764 -22.8255 -22.7846  -6.8246  -6.3883  -6.2258  -5.4991
    -5.4646  -5.4237  -5.3235  -5.2862   2.8860   5.9551   6.3757   6.5437
     6.9959   7.7546   8.3818   8.8611   9.1328   9.3935  12.9540  13.4391
    13.7364  14.4555

          k = 0.1500 0.3500 0.3500 (  5197 PWs)   bands (ev):

   -46.5475 -22.8922 -22.8155 -22.7843  -6.7776  -6.3836  -6.2406  -5.4967
    -5.4663  -5.4080  -5.3363  -5.2321   2.8746   5.9855   6.2992   6.3762
     6.8029   7.6244   8.4383   8.7732   9.0423   9.5616  13.1080  13.4008
    13.7114  14.7104

          k = 0.1500 0.3500 0.4500 (  5196 PWs)   bands (ev):

   -46.5474 -22.8917 -22.8248 -22.7840  -6.7495  -6.3741  -6.1953  -5.4929
    -5.4495  -5.4098  -5.3384  -5.1998   2.8229   5.8764   6.1861   6.3663
     6.6199   7.6898   8.3438   8.7120   8.8464   9.6667  13.3117  13.4213
    13.8584  14.9362

          k = 0.1500 0.4500 0.4500 (  5198 PWs)   bands (ev):

   -46.5472 -22.9012 -22.8243 -22.7836  -6.7302  -6.3313  -6.1773  -5.4904
    -5.4309  -5.3947  -5.3604  -5.1501   2.7772   5.6976   6.0995   6.3627
     6.4839   7.6913   8.0852   8.6196   8.8010   9.8299  13.3883  13.5884
    13.9597  15.2659

          k = 0.2500 0.2500 0.2500 (  5184 PWs)   bands (ev):

   -46.5478 -22.8769 -22.8007 -22.8004  -6.8844  -6.3974  -6.3035  -5.4874
    -5.4835  -5.4087  -5.3030  -5.2810   3.0691   6.1646   6.2291   6.6616
     7.1328   7.1953   8.7129   9.1314   9.1752   9.3213  12.8619  13.2732
    13.2798  14.4863

          k = 0.2500 0.2500 0.3500 (  5197 PWs)   bands (ev):

   -46.5475 -22.8762 -22.8156 -22.8000  -6.8015  -6.3890  -6.2772  -5.4825
    -5.4688  -5.3729  -5.2858  -5.2633   3.0246   6.0290   6.0942   6.3487
     6.8695   7.1566   8.5341   9.1125   9.2111   9.4541  12.9264  13.3367
    13.5277  14.6814

          k = 0.2500 0.2500 0.4500 (  5185 PWs)   bands (ev):

   -46.5474 -22.8758 -22.8248 -22.7996  -6.7609  -6.3892  -6.2432  -5.4788
    -5.4579  -5.3381  -5.2825  -5.2585   2.9893   5.9231   5.9725   6.1866
     6.8053   7.1970   8.3004   9.1381   9.1767   9.5115  13.0147  13.4349
    13.7168  14.9305

          k = 0.2500 0.3500 0.3500 (  5195 PWs)   bands (ev):

   -46.5472 -22.8916 -22.8149 -22.7993  -6.6735  -6.4118  -6.3004  -5.4755
    -5.4517  -5.3330  -5.2620  -5.2030   3.0499   5.8013   5.9275   6.1353
     6.5532   7.0426   8.0836   9.1938   9.3597   9.5626  13.0774  13.4600
    13.6575  15.0058

          k = 0.2500 0.3500 0.4500 (  5190 PWs)   bands (ev):

   -46.5471 -22.8911 -22.8241 -22.7990  -6.6459  -6.4273  -6.2620  -5.4694
    -5.4370  -5.3058  -5.2510  -5.1710   3.0644   5.7780   5.8148   5.9444
     6.3814   7.0660   7.7301   9.2180   9.3496   9.6715  13.2963  13.4613
    13.7991  15.3446

          k = 0.2500 0.4500 0.4500 (  5192 PWs)   bands (ev):

   -46.5469 -22.9005 -22.8237 -22.7986  -6.6074  -6.4126  -6.2739  -5.4654
    -5.4207  -5.2847  -5.2334  -5.1192   3.0983   5.6042   5.7924   5.8578
     6.1910   7.0417   7.2817   9.2147   9.3933   9.8159  13.4404  13.5760
    13.8908  15.6765

          k = 0.3500 0.3500 0.3500 (  5196 PWs)   bands (ev):

   -46.5469 -22.8909 -22.8144 -22.8142  -6.6106  -6.4059  -6.3379  -5.4532
    -5.4417  -5.2616  -5.1948  -5.1674   3.2385   5.5485   5.6345   5.9893
     6.4967   6.5569   7.4611   9.4624   9.5527   9.6748  13.2358  13.6325
    13.6332  15.3693

          k = 0.3500 0.3500 0.4500 (  5196 PWs)   bands (ev):

   -46.5468 -22.8905 -22.8235 -22.8139  -6.6021  -6.4092  -6.3186  -5.4442
    -5.4316  -5.2114  -5.1680  -5.1372   3.3585   5.4402   5.5044   5.8219
     6.3407   6.5359   6.9864   9.5182   9.6241   9.7863  13.4498  13.5967
    13.7883  15.7447

          k = 0.3500 0.4500 0.4500 (  5191 PWs)   bands (ev):

   -46.5466 -22.8999 -22.8231 -22.8135  -6.5068  -6.4583  -6.3511  -5.4407
    -5.4172  -5.1831  -5.1224  -5.0817   3.5529   5.2920   5.4214   5.6712
     6.1582   6.3821   6.5073   9.6128   9.7684   9.8088  13.6041  13.6993
    13.8583  16.1036

          k = 0.4500 0.4500 0.4500 (  5214 PWs)   bands (ev):

   -46.5464 -22.8995 -22.8227 -22.8227  -6.5276  -6.4030  -6.3895  -5.4269
    -5.4141  -5.1233  -5.0603  -5.0543   4.0222   5.1152   5.1833   5.5770
     5.6543   6.1460   6.2534   9.7893   9.8020   9.9397  13.7694  13.8343
    13.8378  16.4522

          k =-0.0500 0.1500 0.0500 (  5193 PWs)   bands (ev):

   -46.5491 -22.8634 -22.7777 -22.7776  -7.3842  -6.5143  -6.4009  -5.4664
    -5.4601  -5.4578  -5.3320  -5.3107   3.7775   6.5732   6.5822   6.8535
     8.2942   8.3218   8.7839   8.8422   9.1838   9.2042  12.0752  12.7164
    12.7312  14.1573

          k =-0.0500 0.2500 0.0500 (  5198 PWs)   bands (ev):

   -46.5488 -22.8789 -22.7771 -22.7771  -7.2309  -6.4832  -6.3427  -5.4751
    -5.4668  -5.4653  -5.3905  -5.3074   3.4256   6.5258   6.6751   6.8135
     8.0291   8.0592   8.7923   8.8675   9.2503   9.3070  12.0782  13.0950
    13.1176  14.1610

          k =-0.0500 0.3500 0.0500 (  5189 PWs)   bands (ev):

   -46.5485 -22.8944 -22.7765 -22.7765  -7.0633  -6.4608  -6.2754  -5.5011
    -5.4742  -5.4647  -5.4469  -5.3064   3.1424   6.1500   6.7834   6.9005
     7.7854   7.7988   8.7309   9.0924   9.3017   9.6497  12.0801  13.4567
    13.4847  13.8717

          k =-0.0500 0.4500 0.0500 (  5201 PWs)   bands (ev):

   -46.5483 -22.9040 -22.7762 -22.7761  -6.9481  -6.4554  -6.2270  -5.5362
    -5.4782  -5.4695  -5.4642  -5.3072   2.9921   5.8550   6.8658   7.0209
     7.6072   7.6314   8.6911   9.1845   9.3359  10.0724  12.0786  13.1558
    13.6736  13.7077

          k = 0.1500 0.0500 0.1500 (  5199 PWs)   bands (ev):

   -46.5489 -22.8530 -22.7872 -22.7869  -7.3239  -6.4770  -6.3771  -5.4807
    -5.4594  -5.4571  -5.3442  -5.3112   3.5878   6.5340   6.7092   6.9875
     8.0929   8.2018   8.6677   8.8827   9.0468   9.1806  12.5488  12.6024
    12.6443  14.6519

          k =-0.0500 0.2500 0.1500 (  5203 PWs)   bands (ev):

   -46.5486 -22.8785 -22.7864 -22.7767  -7.1608  -6.4561  -6.3324  -5.4860
    -5.4726  -5.4642  -5.3591  -5.3219   3.2962   6.4381   6.7025   6.9406
     7.7745   8.0374   8.5144   8.9469   9.0414   9.4254  12.3801  13.1028
    13.1596  14.4746

          k = 0.2500 0.0500 0.1500 (  5203 PWs)   bands (ev):

   -46.5486 -22.8524 -22.8022 -22.7865  -7.2050  -6.4285  -6.3307  -5.4907
    -5.4673  -5.4571  -5.3734  -5.3123   3.3150   6.5091   6.7618   6.9613
     7.8604   7.9734   8.5694   8.8668   9.0567   9.2918  12.5763  12.9044
    13.0019  14.6766

          k =-0.0500 0.3500 0.1500 (  5198 PWs)   bands (ev):

   -46.5483 -22.8940 -22.7858 -22.7761  -7.0024  -6.4333  -6.2793  -5.5086
    -5.4725  -5.4690  -5.3895  -5.3204   3.0526   6.1187   6.7260   6.9732
     7.5594   7.8206   8.5874   8.9364   9.1013   9.6967  12.3731  13.4585
    13.4997  14.0460

          k = 0.3500 0.0500 0.1500 (  5198 PWs)   bands (ev):

   -46.5483 -22.8519 -22.8173 -22.7859  -7.0855  -6.3670  -6.2880  -5.5053
    -5.4717  -5.4567  -5.4100  -5.3107   3.0830   6.2288   6.8057   7.0753
     7.5890   7.9476   8.3046   8.9245   9.0768   9.5669  12.5589  13.2816
    13.3613  14.0135

          k =-0.0500 0.4500 0.1500 (  5194 PWs)   bands (ev):

   -46.5481 -22.9035 -22.7855 -22.7758  -6.8973  -6.4229  -6.2431  -5.5291
    -5.4749  -5.4709  -5.4000  -5.3241   2.9187   5.8389   6.7501   7.0852
     7.4262   7.6538   8.6861   8.9142   9.1404   9.9069  12.3603  13.5307
    13.6878  13.7393

          k = 0.4500 0.0500 0.1500 (  5194 PWs)   bands (ev):

   -46.5481 -22.8515 -22.8266 -22.7855  -7.0124  -6.3123  -6.2718  -5.5201
    -5.4750  -5.4564  -5.4271  -5.3126   2.9566   5.9619   6.9231   7.1643
     7.5110   7.7365   8.2515   8.9152   9.1141   9.8084  12.5226  13.5144
    13.5375  13.5986

          k = 0.2500 0.0500 0.2500 (  5197 PWs)   bands (ev):

   -46.5483 -22.8519 -22.8018 -22.8014  -7.1083  -6.3889  -6.2789  -5.4907
    -5.4696  -5.4615  -5.3472  -5.3391   3.1208   6.4701   6.6823   6.9699
     7.5773   7.6608   8.5988   8.6809   9.2639   9.3388  12.8312  12.9551
    13.2610  14.6030

          k =-0.0500 0.3500 0.2500 (  5201 PWs)   bands (ev):

   -46.5480 -22.8933 -22.8009 -22.7756  -6.9154  -6.3949  -6.2554  -5.5032
    -5.4816  -5.4670  -5.3581  -5.3050   2.9103   6.0753   6.6557   6.9007
     7.4691   7.7365   8.1578   8.7608   9.1905   9.6087  12.7996  13.4723
    13.6104  14.3129

          k = 0.3500 0.0500 0.2500 (  5201 PWs)   bands (ev):

   -46.5480 -22.8513 -22.8167 -22.8010  -7.0223  -6.3258  -6.2295  -5.4961
    -5.4712  -5.4627  -5.3605  -5.3302   2.9415   6.2347   6.5989   6.9848
     7.3909   7.6556   8.2799   8.7615   9.2656   9.5111  12.8562  13.2831
    13.5312  14.2988

          k =-0.0500 0.4500 0.2500 (  5204 PWs)   bands (ev):

   -46.5478 -22.9028 -22.8005 -22.7752  -6.8374  -6.3692  -6.2264  -5.5153
    -5.4809  -5.4727  -5.3579  -5.2984   2.8006   5.8088   6.6599   6.8788
     7.4309   7.6636   8.1602   8.8045   9.1528   9.6551  12.7891  13.6945
    13.7639  14.1968

          k = 0.4500 0.0500 0.2500 (  5204 PWs)   bands (ev):

   -46.5478 -22.8509 -22.8259 -22.8006  -6.9764  -6.2635  -6.2090  -5.5049
    -5.4728  -5.4663  -5.3541  -5.3340   2.8385   5.9672   6.6840   6.8692
     7.4283   7.7641   7.9793   8.8444   9.1902   9.6247  12.8370  13.5316
    13.7119  14.1049

          k = 0.3500 0.0500 0.3500 (  5205 PWs)   bands (ev):

   -46.5477 -22.8507 -22.8161 -22.8159  -6.9801  -6.2499  -6.1692  -5.4913
    -5.4758  -5.4606  -5.3797  -5.2893   2.8029   6.1603   6.3314   6.9574
     7.1469   7.6563   8.3022   8.4999   9.1764   9.6595  13.1906  13.3176
    13.7205  14.5395

          k =-0.0500 0.4500 0.3500 (  5210 PWs)   bands (ev):

   -46.5475 -22.9020 -22.8155 -22.7746  -6.8096  -6.3103  -6.1602  -5.5061
    -5.4864  -5.4703  -5.3913  -5.2139   2.6843   5.7667   6.3385   6.9210
     7.3680   7.6445   7.9942   8.4936   8.9510   9.7126  13.1832  13.6957
    13.9322  14.7157

          k = 0.4500 0.0500 0.3500 (  5210 PWs)   bands (ev):

   -46.5475 -22.8503 -22.8252 -22.8155  -6.9640  -6.1772  -6.1388  -5.4941
    -5.4740  -5.4674  -5.3914  -5.2611   2.7194   5.9264   6.3368   6.8494
     7.1166   7.8177   8.0712   8.5160   8.9855   9.7992  13.2377  13.5247
    13.8553  14.6299

          k = 0.4500 0.0500 0.4500 (  5220 PWs)   bands (ev):

   -46.5474 -22.8500 -22.8248 -22.8248  -6.9655  -6.1055  -6.0932  -5.4932
    -5.4715  -5.4669  -5.4199  -5.2174   2.6459   5.8071   6.2154   6.8891
     6.9110   7.9614   8.1405   8.2627   8.7327   9.9657  13.5050  13.5281
    13.9505  14.8553

          k =-0.1500 0.2500 0.1500 (  5204 PWs)   bands (ev):

   -46.5484 -22.8781 -22.7862 -22.7860  -7.0918  -6.4363  -6.3271  -5.4939
    -5.4805  -5.4512  -5.3359  -5.3226   3.2218   6.4305   6.4844   6.9858
     7.6650   7.8324   8.4506   9.0319   9.1429   9.3058  12.5725  13.1174
    13.1656  14.6767

          k =-0.1500 0.3500 0.1500 (  5201 PWs)   bands (ev):

   -46.5481 -22.8936 -22.7856 -22.7854  -6.9386  -6.4149  -6.2942  -5.5115
    -5.4773  -5.4382  -5.3570  -5.3209   3.0185   6.1203   6.4325   6.9128
     7.5191   7.8236   8.2798   9.0474   9.1901   9.5503  12.5135  13.4512
    13.4802  14.2034

          k =-0.1500 0.4500 0.1500 (  5202 PWs)   bands (ev):

   -46.5479 -22.9031 -22.7852 -22.7851  -6.8389  -6.4039  -6.2730  -5.5207
    -5.4751  -5.4230  -5.3725  -5.3271   2.9023   5.8417   6.3924   6.9664
     7.4546   7.8009   8.2286   9.0444   9.2186   9.6673  12.4591  13.6640
    13.6791  13.9886

          k = 0.2500 0.1500 0.2500 (  5194 PWs)   bands (ev):

   -46.5481 -22.8615 -22.8014 -22.8010  -7.0233  -6.3928  -6.2882  -5.4934
    -5.4800  -5.4380  -5.3289  -5.3134   3.1078   6.3672   6.4747   6.7987
     7.3182   7.5975   8.7162   8.9070   9.1821   9.2823  12.8938  13.0590
    13.2280  14.4732

          k =-0.1500 0.3500 0.2500 (  5205 PWs)   bands (ev):

   -46.5478 -22.8929 -22.8005 -22.7849  -6.8468  -6.3950  -6.2878  -5.5033
    -5.4786  -5.4185  -5.3299  -5.2900   2.9521   6.0705   6.3185   6.6258
     7.2317   7.6285   8.3416   9.0124   9.2182   9.4307  12.7889  13.4206
    13.5499  14.4458

          k = 0.3500 0.1500 0.2500 (  5205 PWs)   bands (ev):

   -46.5478 -22.8608 -22.8162 -22.8006  -6.9379  -6.3509  -6.2507  -5.4953
    -5.4730  -5.4181  -5.3277  -5.3103   2.9781   6.2024   6.3840   6.5775
     7.1270   7.5884   8.5614   8.9222   9.1490   9.4428  12.8675  13.2915
    13.4893  14.4279

          k =-0.1500 0.4500 0.2500 (  5198 PWs)   bands (ev):

   -46.5477 -22.9024 -22.8001 -22.7845  -6.7669  -6.3758  -6.2786  -5.5058
    -5.4742  -5.3993  -5.3384  -5.2831   2.8645   5.8160   6.2199   6.6222
     7.2095   7.7078   8.1638   9.0683   9.1606   9.4546  12.7645  13.6355
    13.7300  14.5247

          k = 0.4500 0.1500 0.2500 (  5198 PWs)   bands (ev):

   -46.5477 -22.8605 -22.8255 -22.8002  -6.8932  -6.3181  -6.2239  -5.4953
    -5.4666  -5.4004  -5.3276  -5.3160   2.8986   5.9647   6.3274   6.5494
     7.0854   7.6483   8.3852   8.9775   9.0586   9.5131  12.8451  13.4893
    13.6858  14.4666

          k = 0.3500 0.1500 0.3500 (  5197 PWs)   bands (ev):

   -46.5475 -22.8602 -22.8157 -22.8155  -6.8949  -6.2922  -6.2165  -5.4870
    -5.4660  -5.3962  -5.3269  -5.2739   2.9006   6.1422   6.2089   6.3781
     6.7653   7.5604   8.5679   8.8033   8.9602   9.6624  13.1018  13.3323
    13.6512  14.7016

          k =-0.1500 0.4500 0.3500 (  5196 PWs)   bands (ev):

   -46.5474 -22.9016 -22.8151 -22.7840  -6.7331  -6.3490  -6.2297  -5.4955
    -5.4576  -5.3855  -5.3552  -5.1981   2.8140   5.7552   6.2544   6.2838
     6.7702   7.6524   8.2374   8.7549   8.9319   9.6780  13.1376  13.6040
    13.8481  14.9950

          k = 0.4500 0.1500 0.3500 (  5196 PWs)   bands (ev):

   -46.5474 -22.8599 -22.8248 -22.8152  -6.8803  -6.2441  -6.1918  -5.4837
    -5.4548  -5.3814  -5.3374  -5.2468   2.8477   5.9189   6.2209   6.2830
     6.6552   7.5949   8.3972   8.7623   8.8615   9.7908  13.1928  13.4728
    13.7931  14.9451

          k = 0.4500 0.1500 0.4500 (  5198 PWs)   bands (ev):

   -46.5472 -22.8595 -22.8244 -22.8244  -6.8835  -6.1832  -6.1720  -5.4791
    -5.4354  -5.3680  -5.3560  -5.2032   2.8093   5.7971   6.1734   6.2926
     6.3731   7.6133   8.1763   8.7386   8.7474   9.9607  13.4438  13.4837
    13.8895  15.2476

          k =-0.2500 0.3500 0.2500 (  5197 PWs)   bands (ev):

   -46.5475 -22.8922 -22.8000 -22.7998  -6.7472  -6.3959  -6.3189  -5.4885
    -5.4694  -5.3714  -5.2876  -5.2547   3.0096   5.9499   6.0600   6.3520
     7.0544   7.0775   8.4367   9.1666   9.2894   9.3955  12.8635  13.4252
    13.5403  14.6893

          k =-0.2500 0.4500 0.2500 (  5185 PWs)   bands (ev):

   -46.5474 -22.9017 -22.7996 -22.7995  -6.6680  -6.3870  -6.3285  -5.4871
    -5.4604  -5.3304  -5.2951  -5.2405   2.9641   5.8205   5.8291   6.2961
     7.0290   7.1047   8.1987   9.1287   9.3192   9.4468  12.9112  13.5774
    13.7302  14.9680

          k = 0.3500 0.2500 0.3500 (  5195 PWs)   bands (ev):

   -46.5472 -22.8756 -22.8150 -22.8149  -6.7546  -6.3522  -6.2818  -5.4655
    -5.4583  -5.3203  -5.2441  -5.2405   3.0669   5.8710   5.8795   6.1417
     6.5949   6.9605   8.1122   9.2278   9.2652   9.6678  13.0788  13.4365
    13.6260  15.0006

          k =-0.2500 0.4500 0.3500 (  5190 PWs)   bands (ev):

   -46.5471 -22.9010 -22.8145 -22.7990  -6.6123  -6.4026  -6.3160  -5.4722
    -5.4385  -5.3002  -5.2559  -5.1669   3.0529   5.6346   5.8330   5.9908
     6.4904   7.0285   7.7197   9.1888   9.3961   9.6609  13.1993  13.5763
    13.7986  15.3589

          k = 0.4500 0.2500 0.3500 (  5190 PWs)   bands (ev):

   -46.5471 -22.8752 -22.8242 -22.8145  -6.7428  -6.3336  -6.2607  -5.4607
    -5.4448  -5.2755  -5.2443  -5.2130   3.0820   5.7400   5.8619   5.9132
     6.4805   6.9584   7.7604   9.2535   9.2747   9.7861  13.2561  13.4804
    13.7680  15.3406

          k = 0.4500 0.2500 0.4500 (  5192 PWs)   bands (ev):

   -46.5469 -22.8748 -22.8238 -22.8237  -6.7494  -6.2800  -6.2694  -5.4544
    -5.4303  -5.2396  -5.2289  -5.1751   3.1294   5.7044   5.7364   5.7947
     6.2538   6.9343   7.3436   9.2866   9.2901   9.9527  13.4707  13.5261
    13.8477  15.6607

          k =-0.3500 0.4500 0.3500 (  5196 PWs)   bands (ev):

   -46.5468 -22.9003 -22.8139 -22.8138  -6.5159  -6.4411  -6.3693  -5.4505
    -5.4268  -5.2278  -5.1638  -5.1227   3.3412   5.3631   5.6194   5.7603
     6.3595   6.5484   6.9812   9.5469   9.6641   9.6915  13.4017  13.6601
    13.7966  15.7465

          k = 0.4500 0.3500 0.4500 (  5191 PWs)   bands (ev):

   -46.5466 -22.8901 -22.8231 -22.8231  -6.6135  -6.3585  -6.3474  -5.4295
    -5.4280  -5.1511  -5.1197  -5.1176   3.5778   5.3233   5.3307   5.7018
     6.2519   6.3725   6.4388   9.6367   9.6451   9.9447  13.6267  13.6857
    13.8289  16.0990

     the Fermi energy is    10.0287 ev

!    total energy              =    -364.95489998 Ry
     Harris-Foulkes estimate   =    -364.95489998 Ry
     estimated scf accuracy    <          3.0E-09 Ry

     The total energy is the sum of the following terms:

     one-electron contribution =     -86.62318399 Ry
     hartree contribution      =      72.07792117 Ry
     xc contribution           =     -85.74946198 Ry
     ewald contribution        =    -264.66652014 Ry
     smearing contrib. (-TS)   =       0.00634496 Ry

     convergence has been achieved in   7 iterations

     Forces acting on atoms (cartesian axes, Ry/au):

     atom    1 type  1   force =     0.00000000    0.01578655    0.00000000
     atom    2 type  2   force =     0.00000000   -0.02172110    0.00000000
     atom    3 type  3   force =     0.00000000    0.00401526    0.00000000
     atom    4 type  3   force =     0.00000000   -0.00209596    0.00000000
     atom    5 type  3   force =     0.00000000    0.00401526    0.00000000

     Total force =     0.022549     Total SCF correction =     0.000222


     Computing stress (Cartesian axis) and pressure

          total   stress  (Ry/bohr**3)                   (kbar)     P=  -23.87
  -0.00023613   0.00000000   0.00000000        -34.74      0.00      0.00
   0.00000000  -0.00001445   0.00000000          0.00     -2.13      0.00
   0.00000000   0.00000000  -0.00023613          0.00      0.00    -34.74


     number of scf cycles    =   2
     number of bfgs steps    =   1

     energy   old            =    -364.9540754425 Ry
     energy   new            =    -364.9548999765 Ry

     CASE: energy  _new < energy  _old

     new trust radius        =       0.0331829116 bohr
     new conv_thr            =       0.0000000008 Ry


ATOMIC_POSITIONS (crystal)
Pb       0.000000000   0.000000000   0.000000000    0   0   0
Ti       0.500000000   0.539609378   0.500000000
O        0.500000000   0.501479382   0.000000000
O        0.500000000  -0.000033931   0.500000000
O        0.000000000   0.501479382   0.500000000



     Writing output data file PbTiO3.save/
     NEW-OLD atomic charge density approx. for the potential

     Check: negative core charge=   -0.000005

     total cpu time spent up to now is      841.8 secs

     Self-consistent Calculation

     iteration #  1     ecut=    80.00 Ry     beta= 0.70
     Davidson diagonalization with overlap
     ethr =  1.00E-06,  avg # of iterations =  4.6

     total cpu time spent up to now is      905.7 secs

     total energy              =    -364.95549164 Ry
     Harris-Foulkes estimate   =    -364.95558884 Ry
     estimated scf accuracy    <       0.00015717 Ry

     iteration #  2     ecut=    80.00 Ry     beta= 0.70
     Davidson diagonalization with overlap
     ethr =  3.57E-07,  avg # of iterations =  3.9

     total cpu time spent up to now is      947.1 secs

     total energy              =    -364.95546226 Ry
     Harris-Foulkes estimate   =    -364.95561040 Ry
     estimated scf accuracy    <       0.00035526 Ry

     iteration #  3     ecut=    80.00 Ry     beta= 0.70
     Davidson diagonalization with overlap
     ethr =  3.57E-07,  avg # of iterations =  3.6

     total cpu time spent up to now is      985.5 secs

     total energy              =    -364.95553781 Ry
     Harris-Foulkes estimate   =    -364.95555637 Ry
     estimated scf accuracy    <       0.00005596 Ry

     iteration #  4     ecut=    80.00 Ry     beta= 0.70
     Davidson diagonalization with overlap
     ethr =  1.27E-07,  avg # of iterations =  2.9

     total cpu time spent up to now is     1018.6 secs

     total energy              =    -364.95554631 Ry
     Harris-Foulkes estimate   =    -364.95554700 Ry
     estimated scf accuracy    <       0.00000143 Ry

     iteration #  5     ecut=    80.00 Ry     beta= 0.70
     Davidson diagonalization with overlap
     ethr =  3.24E-09,  avg # of iterations =  3.3

     total cpu time spent up to now is     1058.7 secs

     total energy              =    -364.95554681 Ry
     Harris-Foulkes estimate   =    -364.95554698 Ry
     estimated scf accuracy    <       0.00000036 Ry

     iteration #  6     ecut=    80.00 Ry     beta= 0.70
     Davidson diagonalization with overlap
     ethr =  8.08E-10,  avg # of iterations =  3.4

     total cpu time spent up to now is     1094.9 secs

     total energy              =    -364.95554688 Ry
     Harris-Foulkes estimate   =    -364.95554698 Ry
     estimated scf accuracy    <       0.00000031 Ry

     iteration #  7     ecut=    80.00 Ry     beta= 0.70
     Davidson diagonalization with overlap
     ethr =  7.06E-10,  avg # of iterations =  2.7

     total cpu time spent up to now is     1126.1 secs

     total energy              =    -364.95554693 Ry
     Harris-Foulkes estimate   =    -364.95554693 Ry
     estimated scf accuracy    <          3.8E-09 Ry

     iteration #  8     ecut=    80.00 Ry     beta= 0.70
     Davidson diagonalization with overlap
     ethr =  8.57E-12,  avg # of iterations =  4.0

     total cpu time spent up to now is     1171.8 secs

     End of self-consistent calculation

          k = 0.0500 0.0500 0.0500 (  5203 PWs)   bands (ev):

   -46.5784 -22.8675 -22.8066 -22.8066  -7.4728  -6.5305  -6.4446  -5.4594
    -5.4472  -5.4469  -5.3086  -5.2954   4.0586   6.5314   6.5643   6.6844
     8.5491   8.5735   8.8587   8.9655   9.1766   9.1787  12.0527  12.3783
    12.3813  14.1193

          k = 0.0500 0.0500 0.1500 (  5193 PWs)   bands (ev):

   -46.5782 -22.8671 -22.8161 -22.8063  -7.3947  -6.4984  -6.4167  -5.4663
    -5.4541  -5.4465  -5.3380  -5.2947   3.7904   6.5809   6.6384   6.8464
     8.3252   8.4828   8.8135   8.8723   9.0298   9.1650  12.3556  12.3911
    12.5309  14.2714

          k = 0.0500 0.0500 0.2500 (  5198 PWs)   bands (ev):

   -46.5779 -22.8666 -22.8313 -22.8057  -7.2643  -6.4419  -6.3722  -5.4781
    -5.4651  -5.4458  -5.3926  -5.2911   3.4495   6.5647   6.7576   6.8748
     8.1459   8.2390   8.7351   8.8107   8.9851   9.2298  12.3858  12.8118
    12.8869  14.2756

          k = 0.0500 0.0500 0.3500 (  5189 PWs)   bands (ev):

   -46.5776 -22.8660 -22.8465 -22.8052  -7.1280  -6.3770  -6.3300  -5.4964
    -5.4764  -5.4467  -5.4449  -5.2893   3.1789   6.2117   6.9376   7.0422
     7.8531   7.9525   8.6851   8.7752   9.1030   9.5643  12.3873  13.2198
    13.2816  13.8164

          k = 0.0500 0.0500 0.4500 (  5201 PWs)   bands (ev):

   -46.5774 -22.8656 -22.8558 -22.8049  -7.0401  -6.3268  -6.3100  -5.5230
    -5.4844  -5.4680  -5.4445  -5.2894   3.0372   5.9319   7.1296   7.2954
     7.5721   7.6342   8.6469   8.7959   9.1568   9.9768  12.3793  13.1186
    13.4611  13.5423

          k = 0.0500 0.1500 0.1500 (  5199 PWs)   bands (ev):

   -46.5780 -22.8768 -22.8157 -22.8059  -7.3084  -6.4778  -6.3905  -5.4671
    -5.4626  -5.4526  -5.3311  -5.3145   3.5887   6.5363   6.6483   7.0009
     8.0727   8.3032   8.6549   8.9289   8.9860   9.2327  12.3626  12.6457
    12.7565  14.4071

          k = 0.0500 0.1500 0.2500 (  5203 PWs)   bands (ev):

   -46.5777 -22.8762 -22.8309 -22.8054  -7.1828  -6.4282  -6.3531  -5.4828
    -5.4697  -5.4522  -5.3619  -5.3070   3.3147   6.4862   6.7598   6.9503
     7.8717   8.1133   8.5233   8.7856   8.9769   9.3819  12.6391  12.8162
    13.0522  14.4775

          k = 0.0500 0.1500 0.3500 (  5198 PWs)   bands (ev):

   -46.5774 -22.8756 -22.8460 -22.8048  -7.0539  -6.3772  -6.3119  -5.5010
    -5.4769  -5.4518  -5.3891  -5.3046   3.0830   6.2020   6.8564   7.0278
     7.6164   7.9327   8.4643   8.8056   8.9595   9.6102  12.6379  13.2166
    13.3978  13.9738

          k = 0.0500 0.1500 0.4500 (  5194 PWs)   bands (ev):

   -46.5772 -22.8752 -22.8554 -22.8045  -6.9727  -6.3450  -6.2834  -5.5158
    -5.4838  -5.4515  -5.3981  -5.3077   2.9574   5.9367   6.9791   7.1745
     7.4532   7.6657   8.5143   8.8647   8.9319   9.7919  12.6232  13.4520
    13.5055  13.6339

          k = 0.0500 0.2500 0.2500 (  5197 PWs)   bands (ev):

   -46.5774 -22.8916 -22.8303 -22.8048  -7.0506  -6.4096  -6.3116  -5.4870
    -5.4729  -5.4584  -5.3398  -5.3203   3.1097   6.3774   6.7421   6.8918
     7.6563   7.8188   8.3132   8.7175   9.1575   9.5024  12.7963  13.0435
    13.3215  14.4857

          k = 0.0500 0.2500 0.3500 (  5201 PWs)   bands (ev):

   -46.5771 -22.8909 -22.8453 -22.8042  -6.9436  -6.3763  -6.2606  -5.4960
    -5.4760  -5.4599  -5.3509  -5.3004   2.9302   6.1787   6.6185   6.9808
     7.4528   7.7753   8.1955   8.5743   9.2568   9.5117  13.0201  13.2113
    13.5856  14.2448

          k = 0.0500 0.2500 0.4500 (  5204 PWs)   bands (ev):

   -46.5769 -22.8905 -22.8546 -22.8039  -6.8827  -6.3526  -6.2218  -5.5029
    -5.4823  -5.4613  -5.3450  -5.2973   2.8280   5.9375   6.6541   6.9723
     7.3850   7.7707   8.1133   8.5857   9.2506   9.4997  13.0168  13.4415
    13.7763  14.0739

          k = 0.0500 0.3500 0.3500 (  5205 PWs)   bands (ev):

   -46.5768 -22.9062 -22.8446 -22.8037  -6.8565  -6.3404  -6.2038  -5.4946
    -5.4788  -5.4613  -5.3738  -5.2456   2.7819   6.0271   6.3433   6.9950
     7.3681   7.6337   8.0887   8.4703   9.1835   9.5902  13.1842  13.4115
    13.7829  14.5237

          k = 0.0500 0.3500 0.4500 (  5210 PWs)   bands (ev):

   -46.5766 -22.9058 -22.8539 -22.8033  -6.8295  -6.3060  -6.1536  -5.4961
    -5.4809  -5.4651  -5.3822  -5.2134   2.6995   5.8839   6.2331   7.0303
     7.2309   7.8022   7.9824   8.3664   8.9672   9.6842  13.3964  13.4309
    13.9412  14.6009

          k = 0.0500 0.4500 0.4500 (  5220 PWs)   bands (ev):

   -46.5765 -22.9152 -22.8534 -22.8029  -6.8167  -6.2487  -6.1073  -5.4980
    -5.4800  -5.4647  -5.4070  -5.1654   2.6208   5.7218   6.1078   7.0558
     7.1608   7.7931   8.0176   8.2609   8.6503   9.8543  13.4118  13.6387
    14.0576  14.9049

          k = 0.1500 0.1500 0.1500 (  5209 PWs)   bands (ev):

   -46.5778 -22.8764 -22.8155 -22.8152  -7.2353  -6.4553  -6.3690  -5.4749
    -5.4683  -5.4513  -5.3280  -5.3163   3.4505   6.5254   6.5578   7.1094
     7.9139   8.0224   8.6601   8.9843   9.0693   9.1092  12.5830  12.7453
    12.7668  14.8958

          k = 0.1500 0.1500 0.2500 (  5204 PWs)   bands (ev):

   -46.5775 -22.8758 -22.8305 -22.8148  -7.1166  -6.4173  -6.3324  -5.4891
    -5.4688  -5.4470  -5.3439  -5.3073   3.2407   6.4576   6.5640   6.9766
     7.6738   7.8137   8.6411   8.8957   9.0753   9.2820  12.7141  12.9439
    13.0459  14.6617

          k = 0.1500 0.1500 0.3500 (  5201 PWs)   bands (ev):

   -46.5772 -22.8752 -22.8456 -22.8142  -6.9988  -6.3770  -6.2918  -5.5015
    -5.4625  -5.4394  -5.3662  -5.3047   3.0496   6.2044   6.5765   6.8868
     7.4511   7.8676   8.3717   8.9642   9.0886   9.4773  12.6561  13.2749
    13.3846  14.1685

          k = 0.1500 0.1500 0.4500 (  5202 PWs)   bands (ev):

   -46.5770 -22.8748 -22.8549 -22.8138  -6.9275  -6.3512  -6.2631  -5.5067
    -5.4581  -5.4302  -5.3821  -5.3089   2.9415   5.9424   6.5802   6.9442
     7.3415   7.9837   8.1334   9.0277   9.0766   9.5740  12.5950  13.4895
    13.6132  13.9345

          k = 0.1500 0.2500 0.2500 (  5194 PWs)   bands (ev):

   -46.5772 -22.8912 -22.8299 -22.8142  -6.9825  -6.4035  -6.3153  -5.4912
    -5.4766  -5.4336  -5.3207  -5.3035   3.1032   6.3322   6.4523   6.8028
     7.3692   7.6104   8.6073   8.8976   9.1927   9.3576  12.8405  13.0709
    13.2737  14.4616

          k = 0.1500 0.2500 0.3500 (  5205 PWs)   bands (ev):

   -46.5769 -22.8906 -22.8449 -22.8136  -6.8796  -6.3890  -6.2706  -5.4941
    -5.4675  -5.4215  -5.3240  -5.2852   2.9726   6.1632   6.4078   6.5873
     7.0950   7.6445   8.5626   8.7995   9.2363   9.3849  12.9184  13.2398
    13.5202  14.4183

          k = 0.1500 0.2500 0.4500 (  5198 PWs)   bands (ev):

   -46.5768 -22.8902 -22.8542 -22.8132  -6.8220  -6.3821  -6.2323  -5.4934
    -5.4595  -5.4156  -5.3194  -5.2837   2.8932   5.9381   6.3699   6.5470
     7.0123   7.7387   8.3688   8.8891   9.1420   9.4021  12.9063  13.4375
    13.7124  14.4635

          k = 0.1500 0.3500 0.3500 (  5197 PWs)   bands (ev):

[...]

   -46.5543 -22.9053 -22.8157 -22.8154  -7.0372  -6.5697  -6.4443  -5.3156
    -5.3149  -5.2454  -5.1284  -5.0098   3.0917   6.0465   6.0926   6.5393
     7.1424   7.2025   8.6245   8.9507   9.1656   9.2289  12.8416  13.2555
    13.3733  14.7438

          k = 0.2500 0.2500 0.3500 (  5197 PWs)   bands (ev):

   -46.5540 -22.9046 -22.8304 -22.8149  -6.9242  -6.5542  -6.4654  -5.3134
    -5.2988  -5.2155  -5.0908  -4.9987   3.0012   5.9246   5.9554   6.2630
     6.8529   7.2177   8.6045   8.9961   9.1051   9.2776  12.9893  13.2997
    13.5337  14.9288

          k = 0.2500 0.2500 0.4500 (  5185 PWs)   bands (ev):

   -46.5538 -22.9041 -22.8395 -22.8146  -6.8610  -6.5247  -6.4902  -5.3110
    -5.2878  -5.1929  -5.0631  -5.0015   2.9411   5.8113   5.8497   6.1374
     6.7456   7.2885   8.4507   9.0029   9.0589   9.3276  13.1139  13.3442
    13.6992  15.1800

          k = 0.2500 0.3500 0.3500 (  5195 PWs)   bands (ev):

   -46.5537 -22.9198 -22.8297 -22.8143  -6.8592  -6.5622  -6.4012  -5.3042
    -5.2846  -5.1945  -5.0679  -4.9625   3.0531   5.6977   5.7347   6.0881
     6.5147   7.0530   8.3304   9.0785   9.1126   9.4460  13.0846  13.5151
    13.6734  15.1712

          k = 0.2500 0.3500 0.4500 (  5190 PWs)   bands (ev):

   -46.5535 -22.9194 -22.8388 -22.8140  -6.8233  -6.5254  -6.4196  -5.2995
    -5.2713  -5.1758  -5.0417  -4.9426   3.0440   5.5974   5.6456   5.9216
     6.3783   7.0956   8.0384   9.0817   9.1114   9.5569  13.3210  13.4651
    13.7984  15.5347

          k = 0.2500 0.4500 0.4500 (  5192 PWs)   bands (ev):

   -46.5533 -22.9287 -22.8384 -22.8136  -6.8186  -6.5277  -6.3521  -5.2960
    -5.2567  -5.1635  -5.0296  -4.9067   3.1015   5.4579   5.5242   5.8112
     6.1866   7.0484   7.7014   9.0957   9.1385   9.7070  13.3876  13.6636
    13.8816  15.7708

          k = 0.3500 0.3500 0.3500 (  5196 PWs)   bands (ev):

   -46.5534 -22.9191 -22.8291 -22.8290  -6.7458  -6.5818  -6.4432  -5.2782
    -5.2776  -5.1376  -5.0008  -4.9394   3.1279   5.4901   5.5450   5.8544
     6.5114   6.5958   7.7943   9.3353   9.3719   9.4922  13.2507  13.6137
    13.6496  15.5538

          k = 0.3500 0.3500 0.4500 (  5196 PWs)   bands (ev):

   -46.5532 -22.9187 -22.8382 -22.8287  -6.6966  -6.5652  -6.4740  -5.2745
    -5.2609  -5.0975  -4.9662  -4.9230   3.1604   5.3635   5.5046   5.6974
     6.3477   6.5895   7.3661   9.3998   9.4718   9.5856  13.4521  13.5734
    13.7621  15.9500

          k = 0.3500 0.4500 0.4500 (  5191 PWs)   bands (ev):

   -46.5530 -22.9280 -22.8378 -22.8283  -6.6981  -6.5819  -6.4042  -5.2661
    -5.2518  -5.0813  -4.9347  -4.8842   3.3474   5.1955   5.3078   5.5760
     6.1755   6.5117   6.9295   9.5027   9.5210   9.7067  13.5621  13.7207
    13.8378  16.2277

          k = 0.4500 0.4500 0.4500 (  5214 PWs)   bands (ev):

   -46.5529 -22.9276 -22.8374 -22.8374  -6.6253  -6.6099  -6.4348  -5.2512
    -5.2455  -5.0290  -4.8787  -4.8703   3.5039   5.1417   5.1914   5.4725
     6.1499   6.2553   6.3402   9.6908   9.6956   9.7143  13.7218  13.8098
    13.8122  16.6197

          k =-0.0500 0.1500 0.0500 (  5193 PWs)   bands (ev):

   -46.5556 -22.8919 -22.7930 -22.7929  -7.5429  -6.6345  -6.4927  -5.3083
    -5.3076  -5.2827  -5.2185  -5.0519   3.8801   6.3994   6.4183   7.0481
     8.1860   8.1867   8.6375   8.6880   8.9751   9.0037  12.0445  12.9056
    12.9435  14.1935

          k =-0.0500 0.2500 0.0500 (  5198 PWs)   bands (ev):

   -46.5553 -22.9074 -22.7924 -22.7924  -7.4152  -6.5984  -6.4457  -5.3191
    -5.3146  -5.2818  -5.2056  -5.0919   3.5414   6.4279   6.4473   6.8231
     7.9921   7.9943   8.6434   8.7220   9.0120   9.1912  12.0465  13.2536
    13.3019  14.2010

          k =-0.0500 0.3500 0.0500 (  5189 PWs)   bands (ev):

   -46.5550 -22.9229 -22.7918 -22.7918  -7.2840  -6.5603  -6.3975  -5.3298
    -5.3214  -5.2810  -5.1926  -5.1341   3.2594   6.2103   6.4912   6.6417
     7.8352   7.8390   8.5855   8.8557   9.0510   9.6235  12.0478  13.5906
    13.6484  13.7619

          k =-0.0500 0.4500 0.0500 (  5201 PWs)   bands (ev):

   -46.5548 -22.9324 -22.7914 -22.7914  -7.2011  -6.5355  -6.3669  -5.3363
    -5.3256  -5.2804  -5.1845  -5.1615   3.1055   5.9366   6.5155   6.6518
     7.7481   7.7518   8.5474   8.9140   9.0759  10.0536  12.0470  13.0810
    13.7907  13.8691

          k = 0.1500 0.0500 0.1500 (  5199 PWs)   bands (ev):

   -46.5554 -22.8816 -22.8023 -22.8021  -7.4616  -6.6202  -6.5045  -5.3275
    -5.3088  -5.2893  -5.2030  -5.0273   3.6416   6.3908   6.6097   7.0409
     8.0022   8.0529   8.4597   8.7376   8.8697   9.2247  12.5141  12.6548
    12.7342  14.8042

          k =-0.0500 0.2500 0.1500 (  5203 PWs)   bands (ev):

   -46.5551 -22.9070 -22.8016 -22.7920  -7.3433  -6.5926  -6.4329  -5.3213
    -5.3107  -5.2884  -5.2044  -5.0704   3.4060   6.2909   6.5087   6.9556
     7.7170   7.9533   8.3769   8.7749   8.8422   9.4018  12.3205  13.2035
    13.3110  14.5139

          k = 0.2500 0.0500 0.1500 (  5203 PWs)   bands (ev):

   -46.5551 -22.8810 -22.8172 -22.8017  -7.3297  -6.5916  -6.4984  -5.3436
    -5.3075  -5.2860  -5.1851  -5.0336   3.3466   6.3623   6.6389   6.9723
     7.7119   7.9454   8.4370   8.7114   8.8591   9.3882  12.6743  12.8387
    12.9459  14.7960

          k =-0.0500 0.3500 0.1500 (  5198 PWs)   bands (ev):

   -46.5548 -22.9224 -22.8010 -22.7914  -7.2211  -6.5621  -6.3806  -5.3308
    -5.3068  -5.2879  -5.1974  -5.0978   3.1688   6.0665   6.5028   6.7799
     7.5897   7.8240   8.3789   8.7824   8.8719   9.7306  12.3127  13.5349
    13.6560  13.9931

          k = 0.3500 0.0500 0.1500 (  5198 PWs)   bands (ev):

   -46.5548 -22.8803 -22.8321 -22.8011  -7.1896  -6.5624  -6.4984  -5.3543
    -5.3025  -5.2800  -5.1647  -5.0541   3.1005   6.1071   6.6886   7.0436
     7.4366   7.9526   8.1778   8.7562   8.9019   9.6508  12.6865  13.1698
    13.2745  14.4051

          k =-0.0500 0.4500 0.1500 (  5194 PWs)   bands (ev):

   -46.5546 -22.9319 -22.8006 -22.7911  -7.1460  -6.5419  -6.3456  -5.3368
    -5.3039  -5.2876  -5.1935  -5.1153   3.0349   5.8336   6.4794   6.7656
     7.5245   7.7513   8.4144   8.7694   8.8941   9.9821  12.3031  13.4981
    13.7439  13.8709

          k = 0.4500 0.0500 0.1500 (  5194 PWs)   bands (ev):

   -46.5546 -22.8799 -22.8413 -22.8007  -7.0973  -6.5385  -6.5082  -5.3581
    -5.2991  -5.2749  -5.1369  -5.0864   2.9680   5.8707   6.8041   7.0540
     7.4252   7.6892   8.1484   8.7623   8.9299   9.8893  12.6691  13.3845
    13.5223  13.9445

          k = 0.2500 0.0500 0.2500 (  5197 PWs)   bands (ev):

   -46.5548 -22.8804 -22.8167 -22.8164  -7.2084  -6.5616  -6.5052  -5.3461
    -5.3080  -5.2684  -5.1595  -5.0377   3.1054   6.3579   6.5181   6.9602
     7.5494   7.6132   8.4760   8.5793   9.0380   9.4783  12.8264  12.9121
    13.1349  14.8979

          k =-0.0500 0.3500 0.2500 (  5201 PWs)   bands (ev):

   -46.5545 -22.9217 -22.8159 -22.7909  -7.1277  -6.5521  -6.3509  -5.3287
    -5.3014  -5.2885  -5.1995  -5.0444   3.0288   5.9191   6.5953   6.7279
     7.4228   7.5731   8.0732   8.5616   9.0588   9.6937  12.7028  13.6026
    13.6816  14.3563

          k = 0.3500 0.0500 0.2500 (  5201 PWs)   bands (ev):

   -46.5545 -22.8797 -22.8314 -22.8160  -7.0848  -6.5332  -6.5096  -5.3468
    -5.3000  -5.2443  -5.1364  -5.0549   2.8889   6.1172   6.4834   6.9466
     7.3811   7.6479   8.1770   8.6639   9.1424   9.5410  12.8569  13.2027
    13.3696  14.6762

          k =-0.0500 0.4500 0.2500 (  5204 PWs)   bands (ev):

   -46.5543 -22.9311 -22.8155 -22.7905  -7.0720  -6.5315  -6.3073  -5.3343
    -5.2985  -5.2783  -5.2052  -5.0438   2.9242   5.6998   6.5290   6.7198
     7.3683   7.5404   8.0218   8.5885   9.0637   9.7702  12.6922  13.7902
    13.8799  14.1522

          k = 0.4500 0.0500 0.2500 (  5204 PWs)   bands (ev):

   -46.5543 -22.8793 -22.8406 -22.8156  -7.0078  -6.5203  -6.5067  -5.3461
    -5.2933  -5.2209  -5.1151  -5.0835   2.7664   5.8745   6.5736   6.8288
     7.4358   7.7171   7.9113   8.7406   9.1361   9.5914  12.8475  13.4206
    13.5544  14.4715

          k = 0.3500 0.0500 0.3500 (  5205 PWs)   bands (ev):

   -46.5542 -22.8791 -22.8309 -22.8307  -6.9896  -6.5087  -6.5026  -5.3403
    -5.2865  -5.2054  -5.1086  -5.0673   2.6879   6.0185   6.2680   6.9552
     7.2683   7.5884   8.1440   8.4863   9.3211   9.4174  13.1359  13.2530
    13.4962  14.8056

          k =-0.0500 0.4500 0.3500 (  5210 PWs)   bands (ev):

   -46.5540 -22.9303 -22.8302 -22.7900  -7.0248  -6.4823  -6.2703  -5.3328
    -5.3067  -5.2713  -5.2001  -4.9784   2.8208   5.5935   6.3477   6.7478
     7.1203   7.4525   7.9345   8.3400   9.1139   9.6642  13.0473  13.8544
    13.9589  14.7155

          k = 0.4500 0.0500 0.3500 (  5210 PWs)   bands (ev):

   -46.5540 -22.8787 -22.8399 -22.8304  -6.9394  -6.4994  -6.4820  -5.3368
    -5.2736  -5.1686  -5.0966  -5.0859   2.5692   5.8131   6.2808   6.9008
     7.2193   7.7470   7.9500   8.4701   9.1353   9.5570  13.1847  13.4453
    13.6002  14.7742

          k = 0.4500 0.0500 0.4500 (  5220 PWs)   bands (ev):

   -46.5538 -22.8782 -22.8395 -22.8395  -6.9114  -6.4707  -6.4662  -5.3322
    -5.2527  -5.1296  -5.1053  -5.0804   2.4500   5.6883   6.2031   6.9944
     7.0417   7.8652   7.9689   8.2691   8.8868   9.7178  13.4415  13.4691
    13.6366  14.7245

          k =-0.1500 0.2500 0.1500 (  5204 PWs)   bands (ev):

   -46.5549 -22.9066 -22.8013 -22.8012  -7.2711  -6.5872  -6.4301  -5.3261
    -5.3094  -5.2851  -5.1894  -5.0526   3.3153   6.2956   6.3132   6.9863
     7.6089   7.6891   8.3435   8.8198   8.9720   9.3731  12.4903  13.1602
    13.3100  14.7906

          k =-0.1500 0.3500 0.1500 (  5201 PWs)   bands (ev):

   -46.5546 -22.9220 -22.8007 -22.8006  -7.1556  -6.5664  -6.3756  -5.3346
    -5.2982  -5.2769  -5.1856  -5.0710   3.1237   6.0675   6.2209   6.8018
     7.5609   7.5870   8.2393   8.8482   8.9898   9.6311  12.4502  13.4897
    13.6384  14.2115

          k =-0.1500 0.4500 0.1500 (  5202 PWs)   bands (ev):

   -46.5544 -22.9315 -22.8003 -22.8002  -7.0863  -6.5534  -6.3371  -5.3388
    -5.2940  -5.2655  -5.1865  -5.0836   3.0107   5.8277   6.1701   6.7738
     7.5434   7.5656   8.1757   8.8597   8.9957   9.7822  12.4182  13.7018
    13.8368  13.9157

          k = 0.2500 0.1500 0.2500 (  5194 PWs)   bands (ev):

   -46.5546 -22.8899 -22.8163 -22.8161  -7.1400  -6.5646  -6.4863  -5.3345
    -5.3115  -5.2607  -5.1469  -5.0263   3.1062   6.2461   6.3654   6.6692
     7.3748   7.5788   8.5366   8.7538   9.0723   9.3442  12.8798  13.0273
    13.1926  14.8400

          k =-0.1500 0.3500 0.2500 (  5205 PWs)   bands (ev):

   -46.5543 -22.9213 -22.8155 -22.8001  -7.0576  -6.5632  -6.3644  -5.3290
    -5.3027  -5.2555  -5.1661  -5.0265   3.0441   5.9155   6.1914   6.5940
     7.1053   7.5042   8.3268   8.7865   9.1143   9.4892  12.7219  13.5176
    13.6375  14.5376

          k = 0.3500 0.1500 0.2500 (  5205 PWs)   bands (ev):

   -46.5543 -22.8892 -22.8310 -22.8156  -7.0177  -6.5427  -6.4989  -5.3335
    -5.3009  -5.2332  -5.1181  -5.0338   2.9347   6.0790   6.2919   6.4877
     7.1437   7.6275   8.4481   8.7712   9.1657   9.3377  12.9197  13.2069
    13.4182  14.7604

          k =-0.1500 0.4500 0.2500 (  5198 PWs)   bands (ev):

   -46.5541 -22.9307 -22.8151 -22.7997  -7.0043  -6.5540  -6.3187  -5.3312
    -5.2970  -5.2358  -5.1722  -5.0248   2.9649   5.7138   6.0960   6.5259
     7.0861   7.4839   8.2395   8.8204   9.1183   9.5042  12.7130  13.7273
    13.8160  14.4856

          k = 0.4500 0.1500 0.2500 (  5198 PWs)   bands (ev):

   -46.5541 -22.8888 -22.8402 -22.8152  -6.9423  -6.5275  -6.5067  -5.3318
    -5.2928  -5.2091  -5.0903  -5.0572   2.8332   5.8650   6.2671   6.4486
     7.0605   7.7204   8.2949   8.8202   9.1442   9.3426  12.9182  13.3683
    13.6122  14.7721

          k = 0.3500 0.1500 0.3500 (  5197 PWs)   bands (ev):

   -46.5540 -22.8886 -22.8305 -22.8303  -6.9151  -6.5224  -6.5136  -5.3256
    -5.2847  -5.1874  -5.0858  -5.0362   2.7834   6.0012   6.1432   6.3387
     6.8565   7.5974   8.5408   8.6766   9.0452   9.4223  13.1047  13.2866
    13.5187  15.0142

          k =-0.1500 0.4500 0.3500 (  5196 PWs)   bands (ev):

   -46.5538 -22.9299 -22.8299 -22.7991  -6.9521  -6.5162  -6.3008  -5.3252
    -5.2878  -5.2319  -5.1477  -4.9644   2.9146   5.5827   6.1330   6.2978
     6.5370   7.5406   8.3357   8.6402   8.9001   9.5797  13.0616  13.7392
    13.8731  15.0162

          k = 0.4500 0.1500 0.3500 (  5196 PWs)   bands (ev):

   -46.5538 -22.8882 -22.8395 -22.8300  -6.8602  -6.5208  -6.5018  -5.3216
    -5.2708  -5.1468  -5.0681  -5.0495   2.6878   5.8029   6.1739   6.2859
     6.7155   7.6537   8.4318   8.7094   8.8342   9.5468  13.1905  13.4048
    13.6401  15.2367

          k = 0.4500 0.1500 0.4500 (  5198 PWs)   bands (ev):

   -46.5536 -22.8877 -22.8391 -22.8391  -6.8263  -6.4999  -6.4969  -5.3168
    -5.2508  -5.0972  -5.0582  -5.0553   2.5924   5.6768   6.1629   6.3490
     6.4507   7.6712   8.3632   8.6220   8.6494   9.7135  13.4103  13.4482
    13.6802  15.3098

          k =-0.2500 0.3500 0.2500 (  5197 PWs)   bands (ev):

   -46.5540 -22.9205 -22.8150 -22.8148  -6.9491  -6.5750  -6.3825  -5.3160
    -5.2985  -5.2226  -5.1141  -4.9954   3.0565   5.8445   5.8975   6.2995
     6.8840   7.1236   8.5240   9.0217   9.1853   9.2733  12.8429  13.5338
    13.5745  14.8198

          k =-0.2500 0.4500 0.2500 (  5185 PWs)   bands (ev):

   -46.5538 -22.9300 -22.8146 -22.8145  -6.9043  -6.5783  -6.3320  -5.3157
    -5.2894  -5.2020  -5.1095  -4.9874   3.0246   5.7236   5.7322   6.1682
     6.8311   7.0959   8.3940   9.0482   9.1432   9.3243  12.8816  13.7286
    13.7310  14.9588

          k = 0.3500 0.2500 0.3500 (  5195 PWs)   bands (ev):

   -46.5537 -22.9039 -22.8298 -22.8297  -6.8105  -6.5529  -6.5012  -5.3016
    -5.2815  -5.1624  -5.0444  -4.9871   2.9489   5.8015   5.8484   5.9869
     6.6538   7.0084   8.3315   9.1080   9.1329   9.4353  13.1162  13.4091
    13.5800  15.2476

          k =-0.2500 0.4500 0.3500 (  5190 PWs)   bands (ev):

   -46.5535 -22.9292 -22.8293 -22.8139  -6.8351  -6.5660  -6.3435  -5.3019
    -5.2723  -5.1781  -5.0566  -4.9398   3.0750   5.5264   5.6630   5.9146
     6.3921   7.0146   8.0697   9.0836   9.1374   9.5496  13.1650  13.6862
    13.7977  15.4160

          k = 0.4500 0.2500 0.3500 (  5190 PWs)   bands (ev):

   -46.5535 -22.9035 -22.8389 -22.8293  -6.7480  -6.5412  -6.5243  -5.2971
    -5.2666  -5.1212  -5.0176  -4.9866   2.9038   5.7182   5.7886   5.8578
     6.4913   7.0272   8.0183   9.1392   9.1517   9.5470  13.2808  13.4323
    13.6965  15.5995

          k = 0.4500 0.2500 0.4500 (  5192 PWs)   bands (ev):

   -46.5533 -22.9030 -22.8385 -22.8384  -6.6901  -6.5429  -6.5395  -5.2917
    -5.2486  -5.0697  -4.9905  -4.9843   2.8623   5.6394   5.7849   5.7916
     6.2645   6.9837   7.6313   9.1793   9.1842   9.7065  13.4552  13.5053
    13.7276  15.9243

          k =-0.3500 0.4500 0.3500 (  5196 PWs)   bands (ev):

   -46.5532 -22.9285 -22.8287 -22.8286  -6.7293  -6.5990  -6.3814  -5.2761
    -5.2629  -5.1205  -4.9741  -4.9105   3.2434   5.3653   5.3715   5.6822
     6.3129   6.5804   7.4286   9.4093   9.4292   9.5854  13.3737  13.7190
    13.7805  15.8480

          k = 0.4500 0.3500 0.4500 (  5191 PWs)   bands (ev):

   -46.5530 -22.9182 -22.8378 -22.8378  -6.6118  -6.5853  -6.5147  -5.2667
    -5.2466  -5.0458  -4.9211  -4.9131   3.2115   5.3581   5.4003   5.5785
     6.2552   6.4195   6.8609   9.5363   9.5464   9.7000  13.6056  13.6646
    13.7632  16.3249

     the Fermi energy is     9.9753 ev

!    total energy              =    -364.96281109 Ry
     Harris-Foulkes estimate   =    -364.96281109 Ry
     estimated scf accuracy    <          2.1E-12 Ry

     The total energy is the sum of the following terms:

     one-electron contribution =     -89.40602729 Ry
     hartree contribution      =      73.48853577 Ry
     xc contribution           =     -85.81250683 Ry
     ewald contribution        =    -263.23905091 Ry
     smearing contrib. (-TS)   =       0.00623816 Ry

     convergence has been achieved in   8 iterations

     Forces acting on atoms (cartesian axes, Ry/au):

     atom    1 type  1   force =     0.00000000   -0.00005283    0.00000000
     atom    2 type  2   force =     0.00000000   -0.00010333    0.00000000
     atom    3 type  3   force =     0.00000000    0.00018612    0.00000000
     atom    4 type  3   force =     0.00000000   -0.00021608    0.00000000
     atom    5 type  3   force =     0.00000000    0.00018612    0.00000000

     Total force =     0.000356     Total SCF correction =     0.000004


     Computing stress (Cartesian axis) and pressure

          total   stress  (Ry/bohr**3)                   (kbar)     P=    0.00
  -0.00012835   0.00000000   0.00000000        -18.88      0.00      0.00
   0.00000000   0.00025669   0.00000000          0.00     37.76      0.00
   0.00000000   0.00000000  -0.00012835          0.00      0.00    -18.88


     bfgs converged in  20 scf cycles and  19 bfgs steps
     (criteria: energy <  1.0E-04 Ry, force <  1.0E-03 Ry/Bohr)

     End of BFGS Geometry Optimization

     Final energy   =    -364.9628110947 Ry
Begin final coordinates

ATOMIC_POSITIONS (crystal)
Pb       0.000000000   0.000000000   0.000000000    0   0   0
Ti       0.500000000   0.459847103   0.500000000
O        0.500000000   0.397305621   0.000000000
O        0.500000000  -0.094163009   0.500000000
O        0.000000000   0.397305621   0.500000000
End final coordinates



     Writing output data file PbTiO3.save/

     init_run     :     11.85s CPU     15.89s WALL (       1 calls)
     electrons    :   5296.97s CPU   7398.89s WALL (      20 calls)
     update_pot   :      7.37s CPU      7.75s WALL (      19 calls)
     forces       :    108.58s CPU    122.47s WALL (      20 calls)
     stress       :    279.17s CPU    303.46s WALL (      20 calls)

     Called by init_run:
     wfcinit      :      8.92s CPU     12.63s WALL (       1 calls)
     potinit      :      0.27s CPU      0.29s WALL (       1 calls)
     hinit0       :      1.97s CPU      1.98s WALL (       1 calls)

     Called by electrons:
     c_bands      :   4568.92s CPU   6259.48s WALL (     183 calls)
     sum_band     :    575.35s CPU    933.72s WALL (     183 calls)
     v_of_rho     :     40.40s CPU     43.89s WALL (     199 calls)
     newd         :    122.88s CPU    176.64s WALL (     199 calls)
     mix_rho      :      3.49s CPU      4.18s WALL (     183 calls)

     Called by c_bands:
     init_us_2    :     76.27s CPU     98.27s WALL (   30525 calls)
     cegterg      :   4344.15s CPU   6016.73s WALL (   13725 calls)

     Called by sum_band:
     sum_band:bec :      0.83s CPU      1.18s WALL (   13725 calls)
     addusdens    :    155.87s CPU    205.90s WALL (     183 calls)

     Called by *egterg:
     h_psi        :   2293.06s CPU   3760.89s WALL (   61587 calls)
     s_psi        :    478.29s CPU    526.56s WALL (   61587 calls)
     g_psi        :     41.80s CPU     55.10s WALL (   47787 calls)
     cdiaghg      :     79.60s CPU    108.05s WALL (   59787 calls)

     Called by h_psi:
     h_psi:pot    :   2283.61s CPU   3745.29s WALL (   61587 calls)
     h_psi:calbec :    472.05s CPU    525.82s WALL (   61587 calls)
     vloc_psi     :   1321.38s CPU   2689.25s WALL (   61587 calls)
     add_vuspsi   :    485.95s CPU    525.01s WALL (   61587 calls)

     General routines
     calbec       :    730.23s CPU    805.78s WALL (   82812 calls)
     fft          :     18.14s CPU     20.33s WALL (    3070 calls)
     ffts         :      0.41s CPU      0.69s WALL (     382 calls)
     fftw         :   1361.87s CPU   2797.76s WALL ( 2386036 calls)
     interpolate  :      1.60s CPU      2.06s WALL (     199 calls)

     Parallel routines

     PWSCF        :      1h35m CPU      2h11m WALL


   This run was terminated on:  21:13:29  14May2020            

=------------------------------------------------------------------------------=
   JOB DONE.
=------------------------------------------------------------------------------=
