
     Program PWSCF v.6.4.1 starts on 14May2020 at  2:31:20 

     This program is part of the open-source Quantum ESPRESSO suite
     for quantum simulation of materials; please cite
         "P. Giannozzi et al., J. Phys.:Condens. Matter 21 395502 (2009);
         "P. Giannozzi et al., J. Phys.:Condens. Matter 29 465901 (2017);
          URL http://www.quantum-espresso.org", 
     in publications or presentations arising from this work. More details at
     http://www.quantum-espresso.org/quote

     Parallel version (MPI & OpenMP), running on       1 processor cores
     Number of MPI processes:                 1
     Threads/MPI process:                     1

     MPI processes distributed on     1 nodes
     Reading input from PTO_7.49_10_0.57.pw.in
Warning: card  &CELL ignored
Warning: card   CELL_DYNAMICS = 'BFGS', ignored
Warning: card  / ignored

     Current dimensions of program PWSCF are:
     Max number of different atomic species (ntypx) = 10
     Max number of k-points (npk) =  40000
     Max angular momentum in pseudopotentials (lmaxx) =  3
     Message from routine read_upf::
     Pseudo file Pb.pbe-dn-rrkjus_psl.0.2.2.UPF has been fixed on the fly.
To avoid this message in the future, permanently fix 
 your pseudo files following these instructions: 
https://gitlab.com/QEF/q-e/blob/master/upftools/how_to_fix_upf.md
     Message from routine read_upf::
     Pseudo file O.pbe-n-rrkjus_psl.0.1.UPF has been fixed on the fly.
To avoid this message in the future, permanently fix 
 your pseudo files following these instructions: 
https://gitlab.com/QEF/q-e/blob/master/upftools/how_to_fix_upf.md
               file Pb.pbe-dn-rrkjus_psl.0.2.2.UPF: wavefunction(s)  6S renormalized

     Subspace diagonalization in iterative solution of the eigenvalue problem:
     a serial algorithm will be used

 
     G-vector sticks info
     --------------------
     sticks:   dense  smooth     PW     G-vecs:    dense   smooth      PW
     Sum        3569    1433    421               160467    40651    6235
 


     bravais-lattice index     =            1
     lattice parameter (alat)  =       7.4900  a.u.
     unit-cell volume          =     420.1897 (a.u.)^3
     number of atoms/cell      =            5
     number of atomic types    =            3
     number of electrons       =        44.00
     number of Kohn-Sham states=           26
     kinetic-energy cutoff     =      80.0000  Ry
     charge density cutoff     =     800.0000  Ry
     convergence threshold     =      1.0E-08
     mixing beta               =       0.7000
     number of iterations used =            8  plain     mixing
     Exchange-correlation      = PBE ( 1  4  3  4 0 0)
     nstep                     =           50


     celldm(1)=   7.490000  celldm(2)=   0.000000  celldm(3)=   0.000000
     celldm(4)=   0.000000  celldm(5)=   0.000000  celldm(6)=   0.000000

     crystal axes: (cart. coord. in units of alat)
               a(1) = (   1.000000   0.000000   0.000000 )  
               a(2) = (   0.000000   1.000000   0.000000 )  
               a(3) = (   0.000000   0.000000   1.000000 )  

     reciprocal axes: (cart. coord. in units 2 pi/alat)
               b(1) = (  1.000000  0.000000  0.000000 )  
               b(2) = (  0.000000  1.000000  0.000000 )  
               b(3) = (  0.000000  0.000000  1.000000 )  


     PseudoPot. # 1 for Pb read from file:
     ./Pb.pbe-dn-rrkjus_psl.0.2.2.UPF
     MD5 check sum: 7afc420059c37d6888fc09c0f121e83f
     Pseudo is Ultrasoft + core correction, Zval = 14.0
     Generated using "atomic" code by A. Dal Corso v.5.0.2 svn rev. 9415
     Using radial grid of 1281 points,  6 beta functions with: 
                l(1) =   0
                l(2) =   0
                l(3) =   1
                l(4) =   1
                l(5) =   2
                l(6) =   2
     Q(r) pseudized with 0 coefficients 


     PseudoPot. # 2 for Ti read from file:
     ./Ti.pbe-sp-van_ak.UPF
     MD5 check sum: 8e4df49b7f0d34bbd5052bf3f5ea0213
     Pseudo is Ultrasoft, Zval = 12.0
     Generated by new atomic code, or converted to UPF format
     Using radial grid of  851 points,  6 beta functions with: 
                l(1) =   0
                l(2) =   0
                l(3) =   1
                l(4) =   1
                l(5) =   2
                l(6) =   2
     Q(r) pseudized with  8 coefficients,  rinner =    1.000   1.000   1.000
                                                       1.000   1.000

     PseudoPot. # 3 for O  read from file:
     ./O.pbe-n-rrkjus_psl.0.1.UPF
     MD5 check sum: e057bbcf3229fb5d8c36c0c92f9568b4
     Pseudo is Ultrasoft + core correction, Zval =  6.0
     Generated using "atomic" code by A. Dal Corso v.5.0.2 svn rev. 9415
     Using radial grid of 1095 points,  4 beta functions with: 
                l(1) =   0
                l(2) =   0
                l(3) =   1
                l(4) =   1
     Q(r) pseudized with 0 coefficients 


     atomic species   valence    mass     pseudopotential
        Pb            14.00   207.20000     Pb( 1.00)
        Ti            12.00    47.87000     Ti( 1.00)
        O              6.00    16.00000     O ( 1.00)

      8 Sym. Ops. (no inversion) found



   Cartesian axes

     site n.     atom                  positions (alat units)
         1           Pb  tau(   1) = (   0.0000000   0.0000000   0.0000000  )
         2           Ti  tau(   2) = (   0.5000000   0.5700000   0.5000000  )
         3           O   tau(   3) = (   0.5000000   0.5000000   0.0000000  )
         4           O   tau(   4) = (   0.5000000   0.0000000   0.5000000  )
         5           O   tau(   5) = (   0.0000000   0.5000000   0.5000000  )

     number of k points=    75  Marzari-Vanderbilt smearing, width (Ry)=  0.0250
                       cart. coord. in units 2pi/alat
        k(    1) = (   0.0500000   0.0500000   0.0500000), wk =   0.0160000
        k(    2) = (   0.0500000   0.0500000   0.1500000), wk =   0.0320000
        k(    3) = (   0.0500000   0.0500000   0.2500000), wk =   0.0320000
        k(    4) = (   0.0500000   0.0500000   0.3500000), wk =   0.0320000
        k(    5) = (   0.0500000   0.0500000   0.4500000), wk =   0.0320000
        k(    6) = (   0.0500000   0.1500000   0.1500000), wk =   0.0320000
        k(    7) = (   0.0500000   0.1500000   0.2500000), wk =   0.0320000
        k(    8) = (   0.0500000   0.1500000   0.3500000), wk =   0.0320000
        k(    9) = (   0.0500000   0.1500000   0.4500000), wk =   0.0320000
        k(   10) = (   0.0500000   0.2500000   0.2500000), wk =   0.0320000
        k(   11) = (   0.0500000   0.2500000   0.3500000), wk =   0.0320000
        k(   12) = (   0.0500000   0.2500000   0.4500000), wk =   0.0320000
        k(   13) = (   0.0500000   0.3500000   0.3500000), wk =   0.0320000
        k(   14) = (   0.0500000   0.3500000   0.4500000), wk =   0.0320000
        k(   15) = (   0.0500000   0.4500000   0.4500000), wk =   0.0320000
        k(   16) = (   0.1500000   0.1500000   0.1500000), wk =   0.0160000
        k(   17) = (   0.1500000   0.1500000   0.2500000), wk =   0.0320000
        k(   18) = (   0.1500000   0.1500000   0.3500000), wk =   0.0320000
        k(   19) = (   0.1500000   0.1500000   0.4500000), wk =   0.0320000
        k(   20) = (   0.1500000   0.2500000   0.2500000), wk =   0.0320000
        k(   21) = (   0.1500000   0.2500000   0.3500000), wk =   0.0320000
        k(   22) = (   0.1500000   0.2500000   0.4500000), wk =   0.0320000
        k(   23) = (   0.1500000   0.3500000   0.3500000), wk =   0.0320000
        k(   24) = (   0.1500000   0.3500000   0.4500000), wk =   0.0320000
        k(   25) = (   0.1500000   0.4500000   0.4500000), wk =   0.0320000
        k(   26) = (   0.2500000   0.2500000   0.2500000), wk =   0.0160000
        k(   27) = (   0.2500000   0.2500000   0.3500000), wk =   0.0320000
        k(   28) = (   0.2500000   0.2500000   0.4500000), wk =   0.0320000
        k(   29) = (   0.2500000   0.3500000   0.3500000), wk =   0.0320000
        k(   30) = (   0.2500000   0.3500000   0.4500000), wk =   0.0320000
        k(   31) = (   0.2500000   0.4500000   0.4500000), wk =   0.0320000
        k(   32) = (   0.3500000   0.3500000   0.3500000), wk =   0.0160000
        k(   33) = (   0.3500000   0.3500000   0.4500000), wk =   0.0320000
        k(   34) = (   0.3500000   0.4500000   0.4500000), wk =   0.0320000
        k(   35) = (   0.4500000   0.4500000   0.4500000), wk =   0.0160000
        k(   36) = (  -0.0500000   0.1500000   0.0500000), wk =   0.0160000
        k(   37) = (  -0.0500000   0.2500000   0.0500000), wk =   0.0160000
        k(   38) = (  -0.0500000   0.3500000   0.0500000), wk =   0.0160000
        k(   39) = (  -0.0500000   0.4500000   0.0500000), wk =   0.0160000
        k(   40) = (   0.1500000   0.0500000   0.1500000), wk =   0.0160000
        k(   41) = (  -0.0500000   0.2500000   0.1500000), wk =   0.0320000
        k(   42) = (   0.2500000   0.0500000   0.1500000), wk =   0.0320000
        k(   43) = (  -0.0500000   0.3500000   0.1500000), wk =   0.0320000
        k(   44) = (   0.3500000   0.0500000   0.1500000), wk =   0.0320000
        k(   45) = (  -0.0500000   0.4500000   0.1500000), wk =   0.0320000
        k(   46) = (   0.4500000   0.0500000   0.1500000), wk =   0.0320000
        k(   47) = (   0.2500000   0.0500000   0.2500000), wk =   0.0160000
        k(   48) = (  -0.0500000   0.3500000   0.2500000), wk =   0.0320000
        k(   49) = (   0.3500000   0.0500000   0.2500000), wk =   0.0320000
        k(   50) = (  -0.0500000   0.4500000   0.2500000), wk =   0.0320000
        k(   51) = (   0.4500000   0.0500000   0.2500000), wk =   0.0320000
        k(   52) = (   0.3500000   0.0500000   0.3500000), wk =   0.0160000
        k(   53) = (  -0.0500000   0.4500000   0.3500000), wk =   0.0320000
        k(   54) = (   0.4500000   0.0500000   0.3500000), wk =   0.0320000
        k(   55) = (   0.4500000   0.0500000   0.4500000), wk =   0.0160000
        k(   56) = (  -0.1500000   0.2500000   0.1500000), wk =   0.0160000
        k(   57) = (  -0.1500000   0.3500000   0.1500000), wk =   0.0160000
        k(   58) = (  -0.1500000   0.4500000   0.1500000), wk =   0.0160000
        k(   59) = (   0.2500000   0.1500000   0.2500000), wk =   0.0160000
        k(   60) = (  -0.1500000   0.3500000   0.2500000), wk =   0.0320000
        k(   61) = (   0.3500000   0.1500000   0.2500000), wk =   0.0320000
        k(   62) = (  -0.1500000   0.4500000   0.2500000), wk =   0.0320000
        k(   63) = (   0.4500000   0.1500000   0.2500000), wk =   0.0320000
        k(   64) = (   0.3500000   0.1500000   0.3500000), wk =   0.0160000
        k(   65) = (  -0.1500000   0.4500000   0.3500000), wk =   0.0320000
        k(   66) = (   0.4500000   0.1500000   0.3500000), wk =   0.0320000
        k(   67) = (   0.4500000   0.1500000   0.4500000), wk =   0.0160000
        k(   68) = (  -0.2500000   0.3500000   0.2500000), wk =   0.0160000
        k(   69) = (  -0.2500000   0.4500000   0.2500000), wk =   0.0160000
        k(   70) = (   0.3500000   0.2500000   0.3500000), wk =   0.0160000
        k(   71) = (  -0.2500000   0.4500000   0.3500000), wk =   0.0320000
        k(   72) = (   0.4500000   0.2500000   0.3500000), wk =   0.0320000
        k(   73) = (   0.4500000   0.2500000   0.4500000), wk =   0.0160000
        k(   74) = (  -0.3500000   0.4500000   0.3500000), wk =   0.0160000
        k(   75) = (   0.4500000   0.3500000   0.4500000), wk =   0.0160000

     Dense  grid:   160467 G-vectors     FFT dimensions: (  72,  72,  72)

     Smooth grid:    40651 G-vectors     FFT dimensions: (  45,  45,  45)

     Estimated max dynamical RAM per process >     759.22 MB

     Check: negative core charge=   -0.000006

     Initial potential from superposition of free atoms

     starting charge   42.99760, renormalised to   44.00000
     Starting wfcs are   31 randomized atomic wfcs

     total cpu time spent up to now is       11.3 secs

     Self-consistent Calculation

     iteration #  1     ecut=    80.00 Ry     beta= 0.70
     Davidson diagonalization with overlap
     ethr =  1.00E-02,  avg # of iterations =  2.0

     total cpu time spent up to now is       31.4 secs

     total energy              =    -364.41345927 Ry
     Harris-Foulkes estimate   =    -365.27958552 Ry
     estimated scf accuracy    <       1.08991518 Ry

     iteration #  2     ecut=    80.00 Ry     beta= 0.70
     Davidson diagonalization with overlap
     ethr =  2.48E-03,  avg # of iterations =  4.1

     total cpu time spent up to now is       58.8 secs

     total energy              =    -363.72547006 Ry
     Harris-Foulkes estimate   =    -365.61668967 Ry
     estimated scf accuracy    <       6.08269525 Ry

     iteration #  3     ecut=    80.00 Ry     beta= 0.70
     Davidson diagonalization with overlap
     ethr =  2.48E-03,  avg # of iterations =  4.5

     total cpu time spent up to now is       85.7 secs

     total energy              =    -364.91327465 Ry
     Harris-Foulkes estimate   =    -365.06781347 Ry
     estimated scf accuracy    <       0.42121616 Ry

     iteration #  4     ecut=    80.00 Ry     beta= 0.70
     Davidson diagonalization with overlap
     ethr =  9.57E-04,  avg # of iterations =  3.8

     total cpu time spent up to now is      105.8 secs

     total energy              =    -364.90978529 Ry
     Harris-Foulkes estimate   =    -364.94597675 Ry
     estimated scf accuracy    <       0.11477040 Ry

     iteration #  5     ecut=    80.00 Ry     beta= 0.70
     Davidson diagonalization with overlap
     ethr =  2.61E-04,  avg # of iterations =  4.5

     total cpu time spent up to now is      130.9 secs

     total energy              =    -364.94180031 Ry
     Harris-Foulkes estimate   =    -364.94242272 Ry
     estimated scf accuracy    <       0.00372132 Ry

     iteration #  6     ecut=    80.00 Ry     beta= 0.70
     Davidson diagonalization with overlap
     ethr =  8.46E-06,  avg # of iterations =  3.7

     total cpu time spent up to now is      154.5 secs

     total energy              =    -364.94173551 Ry
     Harris-Foulkes estimate   =    -364.94267949 Ry
     estimated scf accuracy    <       0.00384478 Ry

     iteration #  7     ecut=    80.00 Ry     beta= 0.70
     Davidson diagonalization with overlap
     ethr =  8.46E-06,  avg # of iterations =  2.4

     total cpu time spent up to now is      173.5 secs

     total energy              =    -364.94182361 Ry
     Harris-Foulkes estimate   =    -364.94206341 Ry
     estimated scf accuracy    <       0.00057734 Ry

     iteration #  8     ecut=    80.00 Ry     beta= 0.70
     Davidson diagonalization with overlap
     ethr =  1.31E-06,  avg # of iterations =  3.7

     total cpu time spent up to now is      196.9 secs

     total energy              =    -364.94200704 Ry
     Harris-Foulkes estimate   =    -364.94202888 Ry
     estimated scf accuracy    <       0.00008707 Ry

     iteration #  9     ecut=    80.00 Ry     beta= 0.70
     Davidson diagonalization with overlap
     ethr =  1.98E-07,  avg # of iterations =  2.0

     total cpu time spent up to now is      215.7 secs

     total energy              =    -364.94201097 Ry
     Harris-Foulkes estimate   =    -364.94201433 Ry
     estimated scf accuracy    <       0.00001249 Ry

     iteration # 10     ecut=    80.00 Ry     beta= 0.70
     Davidson diagonalization with overlap
     ethr =  2.84E-08,  avg # of iterations =  3.1

     total cpu time spent up to now is      238.4 secs

     total energy              =    -364.94201490 Ry
     Harris-Foulkes estimate   =    -364.94201494 Ry
     estimated scf accuracy    <       0.00000017 Ry

     iteration # 11     ecut=    80.00 Ry     beta= 0.70
     Davidson diagonalization with overlap
     ethr =  3.86E-10,  avg # of iterations =  4.0

     total cpu time spent up to now is      266.3 secs

     total energy              =    -364.94201499 Ry
     Harris-Foulkes estimate   =    -364.94201503 Ry
     estimated scf accuracy    <       0.00000009 Ry

     iteration # 12     ecut=    80.00 Ry     beta= 0.70
     Davidson diagonalization with overlap
     ethr =  2.02E-10,  avg # of iterations =  3.0

     total cpu time spent up to now is      288.4 secs

     total energy              =    -364.94201501 Ry
     Harris-Foulkes estimate   =    -364.94201502 Ry
     estimated scf accuracy    <       0.00000001 Ry

     iteration # 13     ecut=    80.00 Ry     beta= 0.70
     Davidson diagonalization with overlap
     ethr =  3.37E-11,  avg # of iterations =  3.0

     total cpu time spent up to now is      310.2 secs

     End of self-consistent calculation

          k = 0.0500 0.0500 0.0500 (  5047 PWs)   bands (ev):

   -45.8676 -22.3704 -22.1051 -22.1051  -7.2399  -6.2593  -6.0525  -5.1139
    -5.0758  -5.0755  -4.9408  -4.9045   4.4000   6.7788   6.8574   7.0633
     8.3515   8.3640   9.0205   9.1482   9.5157   9.5878  12.6577  13.5606
    13.5936  14.9508

          k = 0.0500 0.0500 0.1500 (  5074 PWs)   bands (ev):

   -45.8674 -22.3699 -22.1157 -22.1047  -7.1666  -6.2208  -6.0245  -5.1213
    -5.0838  -5.0752  -4.9684  -4.9077   4.1045   6.8423   6.9878   7.2100
     8.1862   8.3636   8.9771   9.1420   9.3287   9.5554  12.9610  13.4918
    13.5891  15.2451

          k = 0.0500 0.0500 0.2500 (  5093 PWs)   bands (ev):

   -45.8670 -22.3692 -22.1327 -22.1041  -7.0453  -6.1510  -5.9812  -5.1331
    -5.0977  -5.0745  -5.0237  -4.9067   3.7345   6.9124   7.0411   7.2677
     8.2064   8.3143   8.8675   9.0545   9.1922   9.5734  13.3950  13.5879
    13.6766  15.1114

          k = 0.0500 0.0500 0.3500 (  5090 PWs)   bands (ev):

   -45.8667 -22.3685 -22.1496 -22.1035  -6.9205  -6.0655  -5.9447  -5.1458
    -5.1196  -5.0783  -5.0736  -4.9066   3.4412   6.6298   7.2279   7.4323
     8.1045   8.2529   8.6882   8.8954   9.2219   9.9194  13.5662  13.7997
    14.0133  14.1771

          k = 0.0500 0.0500 0.4500 (  5073 PWs)   bands (ev):

   -45.8665 -22.3681 -22.1601 -22.1031  -6.8415  -5.9912  -5.9375  -5.1629
    -5.1426  -5.0982  -5.0733  -4.9078   3.2861   6.4001   7.4412   7.6415
     7.8826   8.0697   8.6318   8.7974   9.2637  10.3406  13.3366  13.6817
    14.0301  14.2913

          k = 0.0500 0.1500 0.1500 (  5079 PWs)   bands (ev):

   -45.8672 -22.3810 -22.1152 -22.1043  -7.0648  -6.2076  -5.9946  -5.1209
    -5.0961  -5.0820  -4.9579  -4.9322   3.8762   6.7990   6.8854   7.3690
     8.0626   8.2576   8.8305   9.1709   9.3714   9.6490  12.9592  13.6821
    13.7932  15.2810

          k = 0.0500 0.1500 0.2500 (  5077 PWs)   bands (ev):

   -45.8668 -22.3802 -22.1322 -22.1037  -6.9471  -6.1468  -5.9606  -5.1336
    -5.1110  -5.0816  -4.9886  -4.9227   3.5823   6.7880   7.0086   7.3162
     8.0469   8.2066   8.6873   9.0469   9.2061   9.7764  13.3871  13.7770
    13.8456  15.1074

          k = 0.0500 0.1500 0.3500 (  5080 PWs)   bands (ev):

   -45.8665 -22.3795 -22.1491 -22.1031  -6.8271  -6.0808  -5.9265  -5.1471
    -5.1276  -5.0813  -5.0120  -4.9218   3.3339   6.5914   7.1685   7.3317
     7.9008   8.1674   8.6664   8.8645   9.1608   9.9915  13.7253  13.8097
    14.1212  14.3627

          k = 0.0500 0.1500 0.4500 (  5079 PWs)   bands (ev):

   -45.8663 -22.3790 -22.1595 -22.1027  -6.7518  -6.0367  -5.9052  -5.1561
    -5.1422  -5.0811  -5.0181  -4.9272   3.1982   6.3913   7.3077   7.4812
     7.7032   8.0323   8.6162   8.9491   9.0958  10.1670  13.6314  13.9615
    14.0133  14.3681

          k = 0.0500 0.2500 0.2500 (  5076 PWs)   bands (ev):

   -45.8665 -22.3980 -22.1314 -22.1030  -6.7802  -6.1494  -5.9173  -5.1342
    -5.1220  -5.0894  -4.9680  -4.9309   3.3492   6.5732   6.9811   7.2148
     7.8648   8.0448   8.5089   9.1107   9.3313   9.9662  13.3689  14.0597
    14.1194  15.0127

          k = 0.0500 0.2500 0.3500 (  5080 PWs)   bands (ev):

   -45.8661 -22.3971 -22.1482 -22.1024  -6.6742  -6.1130  -5.8752  -5.1447
    -5.1268  -5.0906  -4.9755  -4.9077   3.1629   6.4735   7.0024   7.1816
     7.6940   8.0754   8.4408   8.8278   9.3912   9.9661  13.7338  14.0790
    14.2745  14.7042

          k = 0.0500 0.2500 0.4500 (  5084 PWs)   bands (ev):

   -45.8659 -22.3966 -22.1586 -22.1020  -6.6107  -6.0947  -5.8386  -5.1468
    -5.1384  -5.0917  -4.9675  -4.9034   3.0567   6.3413   6.9964   7.2836
     7.4654   8.1587   8.4529   8.7194   9.3845   9.9128  13.9496  14.0462
    14.4320  14.5405

          k = 0.0500 0.3500 0.3500 (  5079 PWs)   bands (ev):

   -45.8658 -22.4147 -22.1474 -22.1016  -6.5258  -6.1325  -5.8115  -5.1441
    -5.1320  -5.0934  -5.0007  -4.8442   2.9964   6.1825   6.8446   7.0808
     7.6746   7.9120   8.3614   8.8807   9.3801   9.9947  13.7011  14.3842
    14.4500  15.0787

          k = 0.0500 0.3500 0.4500 (  5079 PWs)   bands (ev):

   -45.8655 -22.4141 -22.1577 -22.1012  -6.4907  -6.1128  -5.7624  -5.1443
    -5.1367  -5.0955  -5.0072  -4.8081   2.9171   6.1334   6.6812   7.2166
     7.4187   8.1225   8.3430   8.6909   9.2101   9.9930  13.9016  14.4018
    14.5913  15.0580

          k = 0.0500 0.4500 0.4500 (  5100 PWs)   bands (ev):

   -45.8653 -22.4249 -22.1571 -22.1008  -6.4429  -6.0889  -5.7089  -5.1475
    -5.1396  -5.0947  -5.0332  -4.7536   2.8320   5.8902   6.6129   7.1111
     7.5297   7.9746   8.4277   8.6975   8.9042  10.1454  13.8626  14.6197
    14.6707  15.4441

          k = 0.1500 0.1500 0.1500 (  5095 PWs)   bands (ev):

   -45.8670 -22.3805 -22.1150 -22.1147  -6.9988  -6.1769  -5.9733  -5.1267
    -5.1020  -5.0832  -4.9603  -4.9294   3.7319   6.7170   6.8622   7.4546
     7.9859   8.1768   8.6973   9.2378   9.4736   9.5516  13.1673  13.6510
    13.7460  15.7258

          k = 0.1500 0.1500 0.2500 (  5084 PWs)   bands (ev):

   -45.8666 -22.3798 -22.1318 -22.1142  -6.8932  -6.1224  -5.9387  -5.1349
    -5.1073  -5.0815  -4.9757  -4.9225   3.5107   6.6926   6.8294   7.3093
     7.8418   8.1102   8.7320   9.2339   9.3250   9.7091  13.4524  13.6911
    13.8398  15.1114

          k = 0.1500 0.1500 0.3500 (  5082 PWs)   bands (ev):

   -45.8663 -22.3791 -22.1486 -22.1135  -6.7906  -6.0601  -5.9042  -5.1428
    -5.1015  -5.0805  -4.9965  -4.9218   3.3069   6.5751   6.8174   7.1627
     7.7145   8.1245   8.7277   9.0979   9.3084   9.8996  13.5084  13.8381
    14.1217  14.6286

          k = 0.1500 0.1500 0.4500 (  5084 PWs)   bands (ev):

   -45.8660 -22.3786 -22.1590 -22.1131  -6.7294  -6.0167  -5.8826  -5.1451
    -5.0920  -5.0839  -5.0078  -4.9278   3.1902   6.3930   6.8397   7.1386
     7.6680   8.2036   8.5348   9.1775   9.2593   9.9946  13.4305  14.0087
    14.3466  14.4078

          k = 0.1500 0.2500 0.2500 (  5081 PWs)   bands (ev):

   -45.8662 -22.3975 -22.1310 -22.1134  -6.7256  -6.1308  -5.9208  -5.1359
    -5.1223  -5.0683  -4.9513  -4.9121   3.3468   6.4774   6.6504   7.1419
     7.6991   7.9970   8.5970   9.3452   9.4104   9.8341  13.3700  13.9560
    14.0504  14.9778

          k = 0.1500 0.2500 0.3500 (  5080 PWs)   bands (ev):

   -45.8659 -22.3967 -22.1478 -22.1128  -6.6325  -6.1026  -5.8847  -5.1377
    -5.1089  -5.0658  -4.9495  -4.8916   3.2117   6.4171   6.6233   6.9273
     7.3678   8.0704   8.7501   9.0893   9.4262   9.8228  13.5801  13.9475
    14.2450  14.9377

          k = 0.1500 0.2500 0.4500 (  5077 PWs)   bands (ev):

   -45.8657 -22.3962 -22.1581 -22.1124  -6.5790  -6.0915  -5.8498  -5.1347
    -5.0935  -5.0745  -4.9381  -4.8900   3.1287   6.3270   6.6469   6.7797
     7.2306   8.1694   8.7816   9.0058   9.3458   9.7701  13.7404  13.9581
    14.4346  14.9174

          k = 0.1500 0.3500 0.3500 (  5081 PWs)   bands (ev):

   -45.8655 -22.4142 -22.1469 -22.1121  -6.4708  -6.1412  -5.8604  -5.1376
    -5.1060  -5.0410  -4.9562  -4.8282   3.1018   6.1248   6.5218   6.7367
     7.1813   8.0569   8.5587   9.1455   9.3892   9.8671  13.6153  14.2136
    14.3895  15.2628

          k = 0.1500 0.3500 0.4500 (  5079 PWs)   bands (ev):

   -45.8653 -22.4137 -22.1572 -22.1116  -6.4368  -6.1399  -5.8165  -5.1322
    -5.0819  -5.0568  -4.9522  -4.7925   3.0520   6.0901   6.5234   6.6710
     6.8763   8.1596   8.6314   8.8948   9.2185   9.9335  13.8752  14.1772
    14.5257  15.4045

          k = 0.1500 0.4500 0.4500 (  5073 PWs)   bands (ev):

   -45.8651 -22.4244 -22.1567 -22.1112  -6.3698  -6.1412  -5.7965  -5.1316
    -5.0721  -5.0335  -4.9736  -4.7365   2.9980   5.8516   6.4348   6.6474
     6.8457   8.1527   8.3598   8.7804   9.2209  10.0831  13.8953  14.4207
    14.5972  15.7328

          k = 0.2500 0.2500 0.2500 (  5070 PWs)   bands (ev):

   -45.8659 -22.3967 -22.1305 -22.1301  -6.6478  -6.0952  -5.9197  -5.1254
    -5.1182  -5.0410  -4.9301  -4.8844   3.3251   6.2671   6.4700   6.9363
     7.5440   7.6620   8.7666   9.4806   9.5715   9.6941  13.3432  14.0111
    14.0288  15.0401

          k = 0.2500 0.2500 0.3500 (  5072 PWs)   bands (ev):

   -45.8655 -22.3959 -22.1470 -22.1296  -6.5859  -6.0612  -5.8988  -5.1182
    -5.0988  -5.0116  -4.9111  -4.8655   3.2816   6.1763   6.3043   6.6776
     7.2538   7.6247   8.7805   9.3924   9.5083   9.8313  13.4619  14.0115
    14.2357  15.2236

          k = 0.2500 0.2500 0.4500 (  5073 PWs)   bands (ev):

   -45.8653 -22.3955 -22.1574 -22.1292  -6.5560  -6.0481  -5.8684  -5.1128
    -5.0844  -4.9881  -4.8952  -4.8648   3.2452   6.1643   6.2344   6.4284
     7.1487   7.6612   8.6515   9.3537   9.4623   9.8796  13.6924  13.9707
    14.4191  15.3991

          k = 0.2500 0.3500 0.3500 (  5057 PWs)   bands (ev):

   -45.8652 -22.4134 -22.1462 -22.1288  -6.4121  -6.1218  -5.9251  -5.1152
    -5.0803  -4.9778  -4.8751  -4.7976   3.2864   5.8820   6.1738   6.4288
     7.0274   7.5388   8.3535   9.4039   9.7420   9.8386  13.6003  14.1980
    14.3607  15.5518

          k = 0.2500 0.3500 0.4500 (  5063 PWs)   bands (ev):

   -45.8650 -22.4129 -22.1565 -22.1284  -6.3920  -6.1301  -5.8893  -5.1074
    -5.0596  -4.9649  -4.8553  -4.7634   3.3044   5.8808   6.0754   6.2759
     6.7878   7.5767   8.0458   9.3776   9.7570   9.9236  13.8982  14.1294
    14.4901  15.8332

          k = 0.2500 0.4500 0.4500 (  5070 PWs)   bands (ev):

   -45.8648 -22.4237 -22.1560 -22.1279  -6.2726  -6.1916  -5.9022  -5.1045
    -5.0419  -4.9484  -4.8335  -4.7045   3.3256   5.6732   6.0759   6.1770
     6.6608   7.4984   7.6215   9.3649   9.8243  10.0343  14.0000  14.3345
    14.5623  16.1482

          k = 0.3500 0.3500 0.3500 (  5055 PWs)   bands (ev):

   -45.8648 -22.4127 -22.1456 -22.1454  -6.3981  -6.0671  -5.9661  -5.0922
    -5.0634  -4.9137  -4.8022  -4.7591   3.4885   5.6421   5.8713   6.2685
     6.9561   7.0920   7.7821   9.6581   9.7784  10.0948  13.7879  14.3323
    14.3346  15.8959

          k = 0.3500 0.3500 0.4500 (  5056 PWs)   bands (ev):

   -45.8646 -22.4122 -22.1558 -22.1451  -6.4041  -6.0544  -5.9505  -5.0806
    -5.0524  -4.8712  -4.7651  -4.7296   3.6203   5.5833   5.6744   6.1523
     6.7792   7.0534   7.3246   9.7078   9.8572  10.2101  14.0590  14.2536
    14.4765  16.2378

          k = 0.3500 0.4500 0.4500 (  5051 PWs)   bands (ev):

   -45.8644 -22.4229 -22.1553 -22.1446  -6.2982  -6.1093  -5.9856  -5.0783
    -5.0357  -4.8502  -4.7126  -4.6663   3.7943   5.3848   5.7120   5.9658
     6.5574   6.7235   7.0391   9.7862  10.0050  10.2123  14.2012  14.4093
    14.5491  16.5726

          k = 0.4500 0.4500 0.4500 (  5034 PWs)   bands (ev):

   -45.8642 -22.4224 -22.1549 -22.1549  -6.3313  -6.0414  -6.0269  -5.0638
    -5.0310  -4.7915  -4.6452  -4.6383   4.2960   5.2292   5.3979   5.8987
     5.9595   6.5639   6.8073   9.9816   9.9978  10.3824  14.3949  14.5212
    14.5271  16.9127

          k =-0.0500 0.1500 0.0500 (  5074 PWs)   bands (ev):

   -45.8674 -22.3814 -22.1047 -22.1047  -7.1365  -6.2430  -6.0156  -5.1134
    -5.0850  -5.0821  -4.9428  -4.9374   4.0896   6.7929   6.8238   7.2162
     8.2552   8.2568   8.9447   9.1204   9.5774   9.6240  12.6595  13.7553
    13.7971  14.9568

          k =-0.0500 0.2500 0.0500 (  5093 PWs)   bands (ev):

   -45.8670 -22.3993 -22.1040 -22.1040  -6.9558  -6.2250  -5.9492  -5.1125
    -5.1027  -5.0917  -5.0086  -4.9339   3.6902   6.7652   6.8062   7.0616
     8.1188   8.1385   9.0639   9.1949   9.6831   9.7186  12.6621  14.0666
    14.1196  14.9685

          k =-0.0500 0.3500 0.0500 (  5090 PWs)   bands (ev):

   -45.8667 -22.4170 -22.1033 -22.1033  -6.7473  -6.2285  -5.8705  -5.1369
    -5.1116  -5.0999  -5.0701  -4.9331   3.3647   6.4363   6.8059   6.9732
     8.0201   8.0554   9.0016   9.5126   9.7426  10.0875  12.6635  14.3401
    14.3722  14.4550

          k =-0.0500 0.4500 0.0500 (  5073 PWs)   bands (ev):

   -45.8665 -22.4279 -22.1029 -22.1029  -6.5845  -6.2609  -5.8117  -5.1828
    -5.1110  -5.1043  -5.0936  -4.9341   3.1887   6.1541   6.7984   6.9686
     7.9735   8.0195   8.9621   9.6204   9.7802  10.5579  12.6613  13.6045
    14.5537  14.6436

          k = 0.1500 0.0500 0.1500 (  5079 PWs)   bands (ev):

   -45.8672 -22.3695 -22.1154 -22.1151  -7.0995  -6.1864  -5.9946  -5.1269
    -5.0841  -5.0820  -4.9724  -4.9219   3.8970   6.7898   7.0636   7.3373
     8.0452   8.2883   8.8091   9.1997   9.3948   9.5245  13.1804  13.4787
    13.5376  15.7250

          k =-0.0500 0.2500 0.1500 (  5077 PWs)   bands (ev):

   -45.8668 -22.3988 -22.1145 -22.1036  -6.8884  -6.1944  -5.9410  -5.1209
    -5.1168  -5.0898  -4.9721  -4.9472   3.5539   6.6471   6.8584   7.2631
     7.9054   8.1338   8.8481   9.1859   9.4647   9.8590  12.9542  13.9830
    14.1138  15.2482

          k = 0.2500 0.0500 0.1500 (  5077 PWs)   bands (ev):

   -45.8668 -22.3688 -22.1323 -22.1146  -6.9917  -6.1217  -5.9477  -5.1332
    -5.0948  -5.0820  -5.0043  -4.9271   3.6061   6.8146   7.0435   7.3333
     7.9374   8.1195   8.8283   9.1738   9.3742   9.5906  13.4414  13.5701
    13.6950  15.2566

          k =-0.0500 0.3500 0.1500 (  5080 PWs)   bands (ev):

   -45.8665 -22.4165 -22.1138 -22.1029  -6.6876  -6.2001  -5.8794  -5.1481
    -5.1191  -5.0955  -5.0039  -4.9457   3.2739   6.3440   6.7931   7.1633
     7.8037   8.0587   8.9892   9.1769   9.5436  10.1674  12.9429  14.2527
    14.4134  14.5826

          k = 0.3500 0.0500 0.1500 (  5080 PWs)   bands (ev):

   -45.8665 -22.3681 -22.1492 -22.1140  -6.8857  -6.0381  -5.9074  -5.1414
    -5.1022  -5.0815  -5.0500  -4.9270   3.3570   6.6333   7.0251   7.4231
     7.8622   8.0523   8.6144   9.1477   9.3660   9.9131  13.4130  13.8667
    14.0351  14.4436

          k =-0.0500 0.4500 0.1500 (  5079 PWs)   bands (ev):

   -45.8662 -22.4273 -22.1133 -22.1025  -6.5347  -6.2291  -5.8357  -5.1757
    -5.1186  -5.1004  -5.0136  -4.9507   3.1174   6.0870   6.7450   7.1503
     7.7572   8.0295   9.0838   9.1733   9.5889  10.4068  12.9271  14.0039
    14.5024  14.6383

          k = 0.4500 0.0500 0.1500 (  5079 PWs)   bands (ev):

   -45.8663 -22.3677 -22.1596 -22.1136  -6.8219  -5.9625  -5.8982  -5.1531
    -5.1032  -5.0813  -5.0776  -4.9290   3.2199   6.4064   7.1310   7.4318
     7.9017   8.0844   8.3063   9.1316   9.3879  10.2091  13.2799  14.0149
    14.0802  14.3025

          k = 0.2500 0.0500 0.2500 (  5076 PWs)   bands (ev):

   -45.8665 -22.3681 -22.1318 -22.1313  -6.9117  -6.0602  -5.8937  -5.1267
    -5.0961  -5.0889  -4.9859  -4.9566   3.4064   6.7618   6.9734   7.3260
     7.6020   7.9087   8.9630   9.1026   9.5541   9.6395  13.5196  13.6915
    13.8523  15.1014

          k =-0.0500 0.3500 0.2500 (  5080 PWs)   bands (ev):

   -45.8661 -22.4156 -22.1306 -22.1023  -6.5993  -6.1623  -5.8644  -5.1440
    -5.1294  -5.0936  -4.9813  -4.9102   3.1316   6.2480   6.8978   7.1345
     7.7011   8.0044   8.5069   9.1820   9.3755  10.0994  13.3449  14.2743
    14.4213  14.8775

          k = 0.3500 0.0500 0.2500 (  5080 PWs)   bands (ev):

   -45.8661 -22.3674 -22.1484 -22.1308  -6.8422  -5.9727  -5.8442  -5.1263
    -5.0981  -5.0890  -4.9994  -4.9607   3.2187   6.6287   6.8443   7.2241
     7.5003   7.9209   8.7279   9.1497   9.5430   9.9006  13.5194  13.9265
    14.1133  14.7696

          k =-0.0500 0.4500 0.2500 (  5084 PWs)   bands (ev):

   -45.8659 -22.4264 -22.1301 -22.1018  -6.4750  -6.1783  -5.8278  -5.1609
    -5.1294  -5.0984  -4.9835  -4.8997   3.0044   5.9963   6.8217   7.1315
     7.6113   8.0149   8.5712   9.2260   9.3517  10.1509  13.3291  14.3616
    14.6232  14.8253

          k = 0.4500 0.0500 0.2500 (  5084 PWs)   bands (ev):

   -45.8659 -22.3670 -22.1587 -22.1304  -6.8051  -5.8909  -5.8285  -5.1345
    -5.0982  -5.0924  -4.9984  -4.9665   3.1092   6.4021   6.9067   7.0818
     7.5259   8.0996   8.3903   9.2405   9.4810  10.0709  13.4722  14.1119
    14.3342  14.5537

          k = 0.3500 0.0500 0.3500 (  5079 PWs)   bands (ev):

   -45.8658 -22.3667 -22.1477 -22.1474  -6.8139  -5.8769  -5.7803  -5.1173
    -5.1037  -5.0849  -5.0053  -4.9442   3.0802   6.5272   6.7089   7.0541
     7.1848   8.0344   8.8003   8.8983   9.5393  10.0694  13.7562  13.9990
    14.2434  15.0232

          k =-0.0500 0.4500 0.3500 (  5079 PWs)   bands (ev):

   -45.8655 -22.4255 -22.1468 -22.1012  -6.4462  -6.1253  -5.7674  -5.1506
    -5.1362  -5.0961  -5.0148  -4.8057   2.8960   5.9279   6.8112   6.9983
     7.7088   7.8357   8.3771   8.9277   9.2048  10.0764  13.6797  14.5352
    14.6249  15.3386

          k = 0.4500 0.0500 0.3500 (  5079 PWs)   bands (ev):

   -45.8656 -22.3663 -22.1579 -22.1471  -6.8032  -5.7915  -5.7508  -5.1197
    -5.1015  -5.0924  -5.0185  -4.9188   2.9955   6.3302   6.7494   6.8820
     7.1227   8.2208   8.5317   8.9542   9.4096  10.2295  13.8405  14.1435
    14.3697  15.0737

          k = 0.4500 0.0500 0.4500 (  5100 PWs)   bands (ev):

   -45.8653 -22.3659 -22.1574 -22.1574  -6.8076  -5.7144  -5.7008  -5.1170
    -5.0981  -5.0910  -5.0539  -4.8755   2.9244   6.2022   6.7180   6.8396
     6.8820   8.3821   8.6140   8.6971   9.2313  10.4083  14.1263  14.1854
    14.3739  15.3871

          k =-0.1500 0.2500 0.1500 (  5084 PWs)   bands (ev):

   -45.8666 -22.3983 -22.1142 -22.1140  -6.8249  -6.1687  -5.9371  -5.1286
    -5.1254  -5.0775  -4.9485  -4.9455   3.4779   6.5932   6.6748   7.3293
     7.9312   8.0101   8.6231   9.2663   9.5955   9.7541  13.1270  13.9424
    14.0439  15.1639

          k =-0.1500 0.3500 0.1500 (  5082 PWs)   bands (ev):

   -45.8662 -22.4159 -22.1134 -22.1133  -6.6283  -6.1780  -5.8986  -5.1529
    -5.1231  -5.0614  -4.9662  -4.9473   3.2411   6.3552   6.4672   7.2435
     7.9075   7.9231   8.6211   9.2688   9.6410  10.0347  13.0609  14.2493
    14.2824  14.7468

          k =-0.1500 0.4500 0.1500 (  5084 PWs)   bands (ev):

   -45.8660 -22.4268 -22.1130 -22.1128  -6.4787  -6.2088  -5.8735  -5.1668
    -5.1215  -5.0426  -4.9815  -4.9553   3.1034   6.0920   6.3898   7.2604
     7.8763   7.9027   8.6545   9.2614   9.6706  10.1644  13.0115  14.3596
    14.4477  14.6360

          k = 0.2500 0.1500 0.2500 (  5081 PWs)   bands (ev):

   -45.8663 -22.3791 -22.1313 -22.1308  -6.8140  -6.0719  -5.9035  -5.1276
    -5.1124  -5.0693  -4.9625  -4.9241   3.3839   6.5576   6.7228   7.1404
     7.5645   7.9535   8.8651   9.2877   9.5200   9.6573  13.4718  13.7965
    13.9036  14.9832

          k =-0.1500 0.3500 0.2500 (  5080 PWs)   bands (ev):

   -45.8659 -22.4151 -22.1302 -22.1127  -6.5417  -6.1516  -5.9006  -5.1451
    -5.1219  -5.0434  -4.9538  -4.8934   3.1768   6.2154   6.4498   6.9925
     7.6534   7.9820   8.4476   9.3788   9.5206   9.8845  13.3045  14.2169
    14.2834  15.0080

          k = 0.3500 0.1500 0.2500 (  5080 PWs)   bands (ev):

   -45.8659 -22.3784 -22.1479 -22.1303  -6.7466  -6.0056  -5.8684  -5.1260
    -5.1041  -5.0483  -4.9634  -4.9268   3.2493   6.4854   6.5981   6.8614
     7.4286   7.9344   8.8836   9.2127   9.4495   9.8535  13.4761  13.9076
    14.1526  14.9369

          k =-0.1500 0.4500 0.2500 (  5077 PWs)   bands (ev):

   -45.8657 -22.4259 -22.1297 -22.1123  -6.4089  -6.1798  -5.8883  -5.1506
    -5.1189  -5.0169  -4.9681  -4.8829   3.0711   5.9990   6.3038   6.9903
     7.6699   8.0059   8.3457   9.3707   9.5591   9.8654  13.3020  14.4048
    14.4743  15.0756

          k = 0.4500 0.1500 0.2500 (  5077 PWs)   bands (ev):

   -45.8657 -22.3779 -22.1582 -22.1299  -6.7116  -5.9560  -5.8464  -5.1249
    -5.0959  -5.0254  -4.9708  -4.9343   3.1650   6.3780   6.5194   6.7365
     7.4121   7.9716   8.7804   9.2439   9.3422   9.9404  13.5093  14.0115
    14.3669  14.9187

          k = 0.3500 0.1500 0.3500 (  5081 PWs)   bands (ev):

   -45.8656 -22.3776 -22.1472 -22.1470  -6.7207  -5.9264  -5.8331  -5.1120
    -5.1004  -5.0177  -4.9393  -4.9253   3.1760   6.4017   6.4271   6.6316
     7.1150   7.9290   8.9036   9.1594   9.2922  10.0734  13.6235  14.0126
    14.2517  15.2160

          k =-0.1500 0.4500 0.3500 (  5079 PWs)   bands (ev):

   -45.8653 -22.4250 -22.1464 -22.1116  -6.3738  -6.1560  -5.8460  -5.1384
    -5.1005  -5.0105  -4.9798  -4.7890   3.0284   5.8935   6.3987   6.7080
     7.1902   8.0592   8.4026   9.0564   9.3564   9.9538  13.6576  14.4232
    14.5126  15.5445

          k = 0.4500 0.1500 0.3500 (  5079 PWs)   bands (ev):

   -45.8653 -22.3772 -22.1574 -22.1466  -6.7123  -5.8672  -5.8111  -5.1076
    -5.0890  -4.9969  -4.9510  -4.9039   3.1241   6.2965   6.3736   6.4736
     7.0121   7.9640   8.8095   9.0986   9.1857  10.2170  13.7987  14.0584
    14.3921  15.4005

          k = 0.4500 0.1500 0.4500 (  5073 PWs)   bands (ev):

   -45.8651 -22.3767 -22.1569 -22.1569  -6.7191  -5.8024  -5.7898  -5.1015
    -5.0713  -4.9807  -4.9687  -4.8623   3.0909   6.1812   6.3385   6.3667
     6.8012   7.9940   8.6405   9.0749   9.0780  10.4030  14.0530  14.1330
    14.4102  15.6952

          k =-0.2500 0.3500 0.2500 (  5072 PWs)   bands (ev):

   -45.8655 -22.4143 -22.1296 -22.1294  -6.4644  -6.1305  -5.9362  -5.1300
    -5.1059  -5.0028  -4.9088  -4.8527   3.2401   6.0158   6.2775   6.6737
     7.5348   7.5405   8.5534   9.5541   9.5821   9.7471  13.3602  14.1752
    14.2779  15.2514

          k =-0.2500 0.4500 0.2500 (  5073 PWs)   bands (ev):

   -45.8653 -22.4251 -22.1291 -22.1289  -6.3217  -6.1786  -5.9465  -5.1302
    -5.0982  -4.9656  -4.9082  -4.8357   3.1764   5.8752   6.0608   6.6437
     7.5293   7.5420   8.3601   9.4739   9.6148   9.7840  13.4495  14.3228
    14.4684  15.5000

          k = 0.3500 0.2500 0.3500 (  5057 PWs)   bands (ev):

   -45.8652 -22.3952 -22.1464 -22.1462  -6.5646  -5.9977  -5.9049  -5.0961
    -5.0887  -4.9531  -4.8731  -4.8443   3.3346   5.9832   6.0649   6.4840
     7.0942   7.3736   8.4513   9.4665   9.5374  10.0821  13.6027  14.1247
    14.2917  15.5328

          k =-0.2500 0.4500 0.3500 (  5063 PWs)   bands (ev):

   -45.8650 -22.4242 -22.1457 -22.1284  -6.2784  -6.1807  -5.9412  -5.1131
    -5.0676  -4.9520  -4.8594  -4.7563   3.2732   5.7049   6.0719   6.3305
     6.9673   7.5130   8.0032   9.3770   9.8201   9.8826  13.7450  14.3302
    14.5003  15.8788

          k = 0.4500 0.2500 0.3500 (  5063 PWs)   bands (ev):

   -45.8650 -22.3947 -22.1566 -22.1459  -6.5615  -5.9680  -5.8873  -5.0868
    -5.0772  -4.9067  -4.8529  -4.8376   3.3558   5.9051   5.9728   6.2911
     6.9686   7.3615   8.1405   9.4999   9.5311  10.2104  13.8692  14.0858
    14.4266  15.8256

          k = 0.4500 0.2500 0.4500 (  5070 PWs)   bands (ev):

   -45.8648 -22.3943 -22.1562 -22.1561  -6.5735  -5.9091  -5.8970  -5.0747
    -5.0671  -4.8523  -4.8279  -4.8245   3.4165   5.8323   5.8328   6.1604
     6.8000   7.3139   7.7601   9.5402   9.5493  10.3948  14.0938  14.1856
    14.4433  16.1269

          k =-0.3500 0.4500 0.3500 (  5056 PWs)   bands (ev):

   -45.8646 -22.4234 -22.1451 -22.1450  -6.2775  -6.1228  -6.0002  -5.0899
    -5.0477  -4.8903  -4.7579  -4.7099   3.5715   5.4566   5.9157   6.0267
     6.7812   7.0933   7.3012   9.7259   9.8790  10.1060  13.9728  14.3813
    14.5041  16.2447

          k = 0.4500 0.3500 0.4500 (  5051 PWs)   bands (ev):

   -45.8644 -22.4117 -22.1554 -22.1553  -6.4249  -5.9944  -5.9815  -5.0649
    -5.0477  -4.8135  -4.7131  -4.7068   3.8685   5.4395   5.4694   6.0517
     6.7576   6.8042   6.8181   9.8474   9.8603  10.3870  14.2664  14.3634
    14.4705  16.5711

     the Fermi energy is    10.4410 ev

!    total energy              =    -364.94201501 Ry
     Harris-Foulkes estimate   =    -364.94201501 Ry
     estimated scf accuracy    <          4.3E-10 Ry

     The total energy is the sum of the following terms:

     one-electron contribution =     -84.81314671 Ry
     hartree contribution      =      71.85922487 Ry
     xc contribution           =     -85.88001037 Ry
     ewald contribution        =    -266.11391070 Ry
     smearing contrib. (-TS)   =       0.00582791 Ry

     convergence has been achieved in  13 iterations

     Forces acting on atoms (cartesian axes, Ry/au):

     atom    1 type  1   force =     0.00000000    0.02722113    0.00000000
     atom    2 type  2   force =     0.00000000   -0.11581331    0.00000000
     atom    3 type  3   force =     0.00000000    0.00954468    0.00000000
     atom    4 type  3   force =     0.00000000    0.06950282    0.00000000
     atom    5 type  3   force =     0.00000000    0.00954468    0.00000000

     Total force =     0.070801     Total SCF correction =     0.000001


     Computing stress (Cartesian axis) and pressure

          total   stress  (Ry/bohr**3)                   (kbar)     P=   48.17
   0.00008845   0.00000000   0.00000000         13.01      0.00      0.00
   0.00000000   0.00080539   0.00000000          0.00    118.48      0.00
   0.00000000   0.00000000   0.00008845          0.00      0.00     13.01


     BFGS Geometry Optimization

     number of scf cycles    =   1
     number of bfgs steps    =   0

     energy   new            =    -364.9420150114 Ry

     new trust radius        =       0.0695028163 bohr
     new conv_thr            =       0.0000000100 Ry


ATOMIC_POSITIONS (crystal)
Pb       0.000000000   0.000000000   0.000000000    0   0   0
Ti       0.500000000   0.570000000   0.500000000    0   0   0
O        0.500000000   0.501274323   0.000000000
O        0.500000000   0.009279415   0.500000000
O        0.000000000   0.501274323   0.500000000



     Writing output data file PbTiO3.save/
     NEW-OLD atomic charge density approx. for the potential

     Check: negative core charge=   -0.000006

     total cpu time spent up to now is      327.6 secs

     Self-consistent Calculation

     iteration #  1     ecut=    80.00 Ry     beta= 0.70
     Davidson diagonalization with overlap
     ethr =  1.00E-06,  avg # of iterations =  4.6

     total cpu time spent up to now is      361.1 secs

     total energy              =    -364.94492429 Ry
     Harris-Foulkes estimate   =    -364.94615102 Ry
     estimated scf accuracy    <       0.00169056 Ry

     iteration #  2     ecut=    80.00 Ry     beta= 0.70
     Davidson diagonalization with overlap
     ethr =  3.84E-06,  avg # of iterations =  4.4

     total cpu time spent up to now is      388.7 secs

     total energy              =    -364.94444881 Ry
     Harris-Foulkes estimate   =    -364.94683637 Ry
     estimated scf accuracy    <       0.00658424 Ry

     iteration #  3     ecut=    80.00 Ry     beta= 0.70
     Davidson diagonalization with overlap
     ethr =  3.84E-06,  avg # of iterations =  4.0

     total cpu time spent up to now is      414.4 secs

     total energy              =    -364.94564906 Ry
     Harris-Foulkes estimate   =    -364.94573429 Ry
     estimated scf accuracy    <       0.00024383 Ry

     iteration #  4     ecut=    80.00 Ry     beta= 0.70
     Davidson diagonalization with overlap
     ethr =  5.54E-07,  avg # of iterations =  2.8

     total cpu time spent up to now is      435.5 secs

     total energy              =    -364.94568551 Ry
     Harris-Foulkes estimate   =    -364.94569276 Ry
     estimated scf accuracy    <       0.00001432 Ry

     iteration #  5     ecut=    80.00 Ry     beta= 0.70
     Davidson diagonalization with overlap
     ethr =  3.25E-08,  avg # of iterations =  3.1

     total cpu time spent up to now is      458.2 secs

     total energy              =    -364.94568905 Ry
     Harris-Foulkes estimate   =    -364.94569098 Ry
     estimated scf accuracy    <       0.00000428 Ry

     iteration #  6     ecut=    80.00 Ry     beta= 0.70
     Davidson diagonalization with overlap
     ethr =  9.72E-09,  avg # of iterations =  3.1

     total cpu time spent up to now is      480.1 secs

     total energy              =    -364.94569007 Ry
     Harris-Foulkes estimate   =    -364.94569041 Ry
     estimated scf accuracy    <       0.00000095 Ry

     iteration #  7     ecut=    80.00 Ry     beta= 0.70
     Davidson diagonalization with overlap
     ethr =  2.15E-09,  avg # of iterations =  2.8

     total cpu time spent up to now is      501.0 secs

     total energy              =    -364.94569024 Ry
     Harris-Foulkes estimate   =    -364.94569024 Ry
     estimated scf accuracy    <       0.00000001 Ry

     iteration #  8     ecut=    80.00 Ry     beta= 0.70
     Davidson diagonalization with overlap
     ethr =  2.46E-11,  avg # of iterations =  3.9

     total cpu time spent up to now is      528.1 secs

     End of self-consistent calculation

          k = 0.0500 0.0500 0.0500 (  5047 PWs)   bands (ev):

   -45.9578 -22.3829 -22.1988 -22.1987  -7.2383  -6.2483  -6.0724  -5.0969
    -5.0650  -5.0648  -4.9283  -4.8987   4.4135   6.7954   6.8591   7.0384
     8.4786   8.5026   9.1118   9.1324   9.4980   9.5592  12.5852  13.3847
    13.4114  14.8609

          k = 0.0500 0.0500 0.1500 (  5074 PWs)   bands (ev):

   -45.9576 -22.3825 -22.2092 -22.1984  -7.1625  -6.2118  -6.0447  -5.1043
    -5.0731  -5.0644  -4.9565  -4.9009   4.1196   6.8563   6.9638   7.1993
     8.3145   8.4983   9.0175   9.1310   9.3386   9.5403  12.8908  13.3347
    13.4073  15.1257

          k = 0.0500 0.0500 0.2500 (  5093 PWs)   bands (ev):

   -45.9573 -22.3818 -22.2261 -22.1978  -7.0366  -6.1462  -6.0017  -5.1163
    -5.0871  -5.0637  -5.0119  -4.8993   3.7515   6.8956   7.0471   7.2536
     8.3149   8.4185   8.8935   9.0430   9.2285   9.5718  13.3232  13.4123
    13.5394  15.0477

          k = 0.0500 0.0500 0.3500 (  5090 PWs)   bands (ev):

   -45.9569 -22.3811 -22.2429 -22.1972  -6.9060  -6.0668  -5.9652  -5.1303
    -5.1076  -5.0663  -5.0628  -4.8989   3.4600   6.6077   7.2403   7.4231
     8.1487   8.3059   8.7505   8.9068   9.2766   9.9286  13.3947  13.7315
    13.8934  14.1747

          k = 0.0500 0.0500 0.4500 (  5073 PWs)   bands (ev):

   -45.9567 -22.3807 -22.2532 -22.1968  -6.8226  -5.9982  -5.9571  -5.1510
    -5.1257  -5.0868  -5.0625  -4.9000   3.3063   6.3743   7.4583   7.6622
     7.8868   8.0558   8.7319   8.8239   9.3238  10.3592  13.2917  13.5569
    13.9647  14.1651

          k = 0.0500 0.1500 0.1500 (  5079 PWs)   bands (ev):

   -45.9574 -22.3935 -22.2088 -22.1980  -7.0630  -6.1965  -6.0155  -5.1040
    -5.0849  -5.0713  -4.9464  -4.9247   3.8945   6.8107   6.8996   7.3491
     8.1642   8.3639   8.8711   9.1699   9.3548   9.6378  12.8893  13.5323
    13.6209  15.1800

          k = 0.0500 0.1500 0.2500 (  5077 PWs)   bands (ev):

   -45.9571 -22.3928 -22.2256 -22.1974  -6.9408  -6.1392  -5.9816  -5.1173
    -5.0988  -5.0709  -4.9776  -4.9154   3.6014   6.7860   7.0277   7.2985
     8.1238   8.2842   8.7401   9.0375   9.2157   9.7735  13.3194  13.6120
    13.7076  15.0778

          k = 0.0500 0.1500 0.3500 (  5080 PWs)   bands (ev):

   -45.9567 -22.3920 -22.2424 -22.1967  -6.8155  -6.0775  -5.9476  -5.1324
    -5.1132  -5.0706  -5.0021  -4.9143   3.3540   6.5775   7.1800   7.3319
     7.9405   8.2077   8.7057   8.9105   9.1826   9.9954  13.5854  13.7231
    14.0053  14.3507

          k = 0.0500 0.1500 0.4500 (  5079 PWs)   bands (ev):

   -45.9565 -22.3916 -22.2527 -22.1964  -6.7364  -6.0367  -5.9263  -5.1438
    -5.1253  -5.0703  -5.0092  -4.9191   3.2193   6.3690   7.3178   7.4972
     7.7304   8.0263   8.6765   8.9964   9.1351  10.1783  13.5328  13.8953
    13.9517  14.2426

          k = 0.0500 0.2500 0.2500 (  5076 PWs)   bands (ev):

   -45.9567 -22.4104 -22.2248 -22.1967  -6.7797  -6.1356  -5.9391  -5.1188
    -5.1077  -5.0787  -4.9566  -4.9246   3.3724   6.6001   7.0125   7.1889
     7.9218   8.0868   8.5375   9.0957   9.3607   9.9535  13.3037  13.9243
    13.9718  14.9976

          k = 0.0500 0.2500 0.3500 (  5080 PWs)   bands (ev):

   -45.9564 -22.4096 -22.2415 -22.1961  -6.6704  -6.1005  -5.8968  -5.1293
    -5.1120  -5.0800  -4.9654  -4.9020   3.1853   6.4846   6.9866   7.2140
     7.7239   8.0919   8.4672   8.8404   9.4513   9.9494  13.6722  13.9299
    14.1638  14.6802

          k = 0.0500 0.2500 0.4500 (  5084 PWs)   bands (ev):

   -45.9561 -22.4091 -22.2518 -22.1957  -6.6051  -6.0819  -5.8607  -5.1324
    -5.1228  -5.0810  -4.9585  -4.8975   3.0790   6.3326   6.9938   7.2963
     7.5200   8.1457   8.4486   8.7697   9.4720   9.8919  13.8771  13.9226
    14.3432  14.4850

          k = 0.0500 0.3500 0.3500 (  5079 PWs)   bands (ev):

   -45.9560 -22.4271 -22.2407 -22.1954  -6.5365  -6.1037  -5.8349  -5.1287
    -5.1161  -5.0829  -4.9898  -4.8400   3.0213   6.2173   6.8083   7.1351
     7.6757   7.9285   8.3742   8.8758   9.4521   9.9760  13.6435  14.2534
    14.3270  15.0500

          k = 0.0500 0.3500 0.4500 (  5079 PWs)   bands (ev):

   -45.9558 -22.4266 -22.2509 -22.1950  -6.5023  -6.0801  -5.7864  -5.1286
    -5.1212  -5.0852  -4.9972  -4.8043   2.9403   6.1563   6.6571   7.2703
     7.4184   8.1156   8.3273   8.7169   9.2919   9.9901  13.8480  14.2560
    14.4770  15.0419

          k = 0.0500 0.4500 0.4500 (  5100 PWs)   bands (ev):

   -45.9556 -22.4373 -22.2503 -22.1945  -6.4656  -6.0436  -5.7349  -5.1321
    -5.1222  -5.0849  -5.0221  -4.7509   2.8558   5.9237   6.5828   7.1654
     7.5070   7.9779   8.4087   8.7083   8.9851  10.1580  13.8128  14.4729
    14.5591  15.4322

          k = 0.1500 0.1500 0.1500 (  5095 PWs)   bands (ev):

   -45.9572 -22.3931 -22.2085 -22.2083  -6.9940  -6.1684  -5.9943  -5.1105
    -5.0905  -5.0723  -4.9477  -4.9227   3.7493   6.7495   6.8551   7.4404
     8.0507   8.2656   8.7560   9.2377   9.4881   9.5246  13.0993  13.5073
    13.5848  15.6335

          k = 0.1500 0.1500 0.2500 (  5084 PWs)   bands (ev):

   -45.9568 -22.3923 -22.2252 -22.2077  -6.8828  -6.1189  -5.9600  -5.1203
    -5.0946  -5.0701  -4.9635  -4.9154   3.5274   6.7154   6.8355   7.3038
     7.8896   8.1411   8.8248   9.2175   9.3390   9.7046  13.3757  13.5563
    13.7074  15.1092

          k = 0.1500 0.1500 0.3500 (  5082 PWs)   bands (ev):

   -45.9565 -22.3916 -22.2419 -22.2071  -6.7736  -6.0627  -5.9255  -5.1298
    -5.0877  -5.0678  -4.9852  -4.9144   3.3237   6.5649   6.8471   7.1723
     7.7375   8.1591   8.7583   9.1316   9.3294   9.8962  13.3983  13.7595
    14.0047  14.6060

          k = 0.1500 0.1500 0.4500 (  5084 PWs)   bands (ev):

   -45.9563 -22.3912 -22.2522 -22.2067  -6.7078  -6.0236  -5.9039  -5.1330
    -5.0792  -5.0681  -4.9982  -4.9200   3.2075   6.3721   6.8626   7.1743
     7.6709   8.2509   8.5324   9.2212   9.2916   9.9905  13.3356  13.9458
    14.2355  14.3573

          k = 0.1500 0.2500 0.2500 (  5081 PWs)   bands (ev):

   -45.9565 -22.4100 -22.2244 -22.2070  -6.7205  -6.1213  -5.9423  -5.1218
    -5.1076  -5.0569  -4.9392  -4.9066   3.3682   6.5200   6.6711   7.1224
     7.7092   8.0112   8.6961   9.3278   9.4271   9.8194  13.3119  13.8223
    13.9250  14.9583

          k = 0.1500 0.2500 0.3500 (  5080 PWs)   bands (ev):

   -45.9562 -22.4092 -22.2411 -22.2064  -6.6217  -6.0973  -5.9058  -5.1240
    -5.0947  -5.0522  -4.9394  -4.8865   3.2320   6.4385   6.6492   6.9145
     7.3790   8.0726   8.8434   9.0694   9.4687   9.8023  13.5163  13.8342
    14.1312  14.9031

          k = 0.1500 0.2500 0.4500 (  5077 PWs)   bands (ev):

   -45.9559 -22.4087 -22.2513 -22.2060  -6.5647  -6.0881  -5.8712  -5.1215
    -5.0810  -5.0573  -4.9304  -4.8845   3.1488   6.3245   6.6602   6.7947
     7.2471   8.1732   8.7959   9.0472   9.4041   9.7482  13.6410  13.8903
    14.3209  14.8851

          k = 0.1500 0.3500 0.3500 (  5081 PWs)   bands (ev):

   -45.9558 -22.4267 -22.2402 -22.2057  -6.4742  -6.1201  -5.8817  -5.1227
    -5.0905  -5.0285  -4.9469  -4.8246   3.1259   6.1704   6.5497   6.7046
     7.1679   8.0483   8.6525   9.1450   9.3947   9.8716  13.5611  14.0927
    14.2785  15.2268

          k = 0.1500 0.3500 0.4500 (  5079 PWs)   bands (ev):

   -45.9556 -22.4261 -22.2505 -22.2053  -6.4401  -6.1166  -5.8381  -5.1177
    -5.0671  -5.0415  -4.9453  -4.7892   3.0745   6.1263   6.5184   6.6625
     6.8802   8.1444   8.6973   8.9318   9.2075   9.9522  13.8190  14.0590
    14.4177  15.3812

          k = 0.1500 0.4500 0.4500 (  5073 PWs)   bands (ev):

   -45.9554 -22.4368 -22.2499 -22.2048  -6.3907  -6.0991  -5.8182  -5.1164
    -5.0544  -5.0200  -4.9680  -4.7343   3.0219   5.8955   6.4348   6.6361
     6.8221   8.1369   8.4296   8.8272   9.1941  10.1131  13.8387  14.2969
    14.4945  15.7184

          k = 0.2500 0.2500 0.2500 (  5070 PWs)   bands (ev):

   -45.9562 -22.4092 -22.2239 -22.2236  -6.6342  -6.0936  -5.9407  -5.1111
    -5.1048  -5.0282  -4.9178  -4.8799   3.3436   6.3200   6.4808   6.9325
     7.5379   7.6484   8.8863   9.4946   9.5532   9.6763  13.2911  13.8910
    13.9151  15.0050

          k = 0.2500 0.2500 0.3500 (  5072 PWs)   bands (ev):

   -45.9558 -22.4085 -22.2403 -22.2230  -6.5635  -6.0674  -5.9192  -5.1042
    -5.0866  -4.9961  -4.9002  -4.8615   3.2976   6.2231   6.3224   6.6701
     7.2443   7.6130   8.8657   9.3998   9.5187   9.8157  13.4057  13.9085
    14.1287  15.1865

          k = 0.2500 0.2500 0.4500 (  5073 PWs)   bands (ev):

   -45.9556 -22.4080 -22.2506 -22.2226  -6.5289  -6.0580  -5.8886  -5.0991
    -5.0732  -4.9686  -4.8887  -4.8598   3.2601   6.1843   6.2750   6.4187
     7.1443   7.6543   8.6948   9.3903   9.4697   9.8668  13.6096  13.9022
    14.3134  15.3730

          k = 0.2500 0.3500 0.3500 (  5057 PWs)   bands (ev):

   -45.9555 -22.4259 -22.2395 -22.2223  -6.3977  -6.1184  -5.9444  -5.0999
    -5.0678  -4.9601  -4.8683  -4.7952   3.3081   5.9386   6.1828   6.4137
     7.0036   7.5144   8.4233   9.4360   9.7429   9.8446  13.5442  14.0902
    14.2535  15.5150

          k = 0.2500 0.3500 0.4500 (  5063 PWs)   bands (ev):

   -45.9552 -22.4254 -22.2497 -22.2219  -6.3728  -6.1300  -5.9084  -5.0924
    -5.0487  -4.9430  -4.8518  -4.7610   3.3245   5.9402   6.0752   6.2572
     6.7735   7.5538   8.0883   9.4281   9.7428   9.9479  13.8339  14.0306
    14.3877  15.8088

          k = 0.2500 0.4500 0.4500 (  5070 PWs)   bands (ev):

   -45.9550 -22.4361 -22.2492 -22.2214  -6.2777  -6.1663  -5.9207  -5.0891
    -5.0308  -4.9251  -4.8315  -4.7034   3.3493   5.7361   6.0611   6.1547
     6.6380   7.5016   7.6439   9.4185   9.7983  10.0777  13.9364  14.2266
    14.4635  16.1284

          k = 0.3500 0.3500 0.3500 (  5055 PWs)   bands (ev):

   -45.9551 -22.4251 -22.2389 -22.2388  -6.3684  -6.0780  -5.9841  -5.0765
    -5.0528  -4.8925  -4.7972  -4.7583   3.5062   5.6969   5.8777   6.2625
     6.9427   7.0506   7.8205   9.7033   9.8191  10.0710  13.7271  14.2296
    14.2371  15.8644

          k = 0.3500 0.3500 0.4500 (  5056 PWs)   bands (ev):

   -45.9549 -22.4246 -22.2490 -22.2384  -6.3700  -6.0688  -5.9680  -5.0651
    -5.0420  -4.8474  -4.7635  -4.7283   3.6340   5.6353   5.6927   6.1381
     6.7630   7.0214   7.3450   9.7572   9.8986  10.1863  13.9892  14.1634
    14.3810  16.2175

          k = 0.3500 0.4500 0.4500 (  5051 PWs)   bands (ev):

   -45.9547 -22.4353 -22.2485 -22.2379  -6.2630  -6.1241  -6.0022  -5.0625
    -5.0254  -4.8243  -4.7125  -4.6664   3.8163   5.4386   5.6972   5.9516
     6.5629   6.7388   7.0021   9.8410  10.0548  10.1870  14.1321  14.3119
    14.4527  16.5526

          k = 0.4500 0.4500 0.4500 (  5034 PWs)   bands (ev):

   -45.9545 -22.4349 -22.2481 -22.2481  -6.2944  -6.0573  -6.0428  -5.0478
    -5.0210  -4.7644  -4.6459  -4.6393   4.3105   5.2806   5.4113   5.8781
     5.9724   6.5648   6.7554  10.0352  10.0503  10.3568  14.3209  14.4295
    14.4341  16.8998

          k =-0.0500 0.1500 0.0500 (  5074 PWs)   bands (ev):

   -45.9576 -22.3940 -22.1984 -22.1983  -7.1369  -6.2302  -6.0364  -5.0963
    -5.0741  -5.0714  -4.9362  -4.9247   4.1073   6.8197   6.8381   7.1984
     8.3572   8.3690   9.0074   9.1092   9.5583   9.5970  12.5869  13.5887
    13.6241  14.8661

          k =-0.0500 0.2500 0.0500 (  5093 PWs)   bands (ev):

   -45.9573 -22.4117 -22.1977 -22.1977  -6.9609  -6.2082  -5.9719  -5.0954
    -5.0916  -5.0811  -5.0004  -4.9209   3.7160   6.7875   6.8522   7.0688
     8.1973   8.2017   9.0552   9.2087   9.6573   9.7054  12.5895  13.9125
    13.9581  14.8758

          k =-0.0500 0.3500 0.0500 (  5090 PWs)   bands (ev):

   -45.9569 -22.4294 -22.1970 -22.1970  -6.7610  -6.2036  -5.8963  -5.1241
    -5.0945  -5.0894  -5.0606  -4.9196   3.4001   6.4357   6.8737   7.0248
     8.0613   8.0837   8.9936   9.4950   9.7173  10.0828  12.5910  14.2290
    14.2722  14.3650

          k =-0.0500 0.4500 0.0500 (  5073 PWs)   bands (ev):

   -45.9567 -22.4403 -22.1966 -22.1966  -6.6123  -6.2224  -5.8408  -5.1670
    -5.0943  -5.0935  -5.0838  -4.9204   3.2309   6.1431   6.8804   7.0424
     7.9894   8.0269   8.9542   9.5971   9.7549  10.5490  12.5890  13.6032
    14.4181  14.4921

          k = 0.1500 0.0500 0.1500 (  5079 PWs)   bands (ev):

   -45.9574 -22.3821 -22.2090 -22.2087  -7.0926  -6.1801  -6.0151  -5.1105
    -5.0733  -5.0714  -4.9597  -4.9151   3.9112   6.8088   7.0334   7.3335
     8.1431   8.3995   8.8490   9.1866   9.4491   9.4968  13.1087  13.3296
    13.3700  15.5494

          k =-0.0500 0.2500 0.1500 (  5077 PWs)   bands (ev):

   -45.9571 -22.4112 -22.2081 -22.1973  -6.8914  -6.1787  -5.9635  -5.1066
    -5.1021  -5.0792  -4.9649  -4.9347   3.5786   6.6748   6.8976   7.2455
     7.9796   8.2030   8.8543   9.1922   9.4418   9.8495  12.8849  13.8438
    13.9531  15.1748

          k = 0.2500 0.0500 0.1500 (  5077 PWs)   bands (ev):

   -45.9571 -22.3814 -22.2257 -22.2082  -6.9791  -6.1209  -5.9687  -5.1180
    -5.0838  -5.0713  -4.9911  -4.9190   3.6201   6.8211   7.0409   7.3281
     8.0189   8.1749   8.8827   9.1607   9.4002   9.6042  13.3061  13.4699
    13.5721  15.2552

          k =-0.0500 0.3500 0.1500 (  5080 PWs)   bands (ev):

   -45.9567 -22.4289 -22.2074 -22.1966  -6.7000  -6.1753  -5.9041  -5.1342
    -5.1021  -5.0851  -4.9964  -4.9330   3.3064   6.3648   6.8482   7.1764
     7.8499   8.0914   8.9786   9.1831   9.5184  10.1574  12.8744  14.1348
    14.2702  14.5552

          k = 0.3500 0.0500 0.1500 (  5080 PWs)   bands (ev):

   -45.9567 -22.3807 -22.2424 -22.2075  -6.8664  -6.0445  -5.9287  -5.1285
    -5.0904  -5.0707  -5.0347  -4.9186   3.3717   6.6118   7.0612   7.4308
     7.8745   8.1319   8.6249   9.1674   9.3958   9.9281  13.2814  13.7899
    13.9233  14.4328

          k =-0.0500 0.4500 0.1500 (  5079 PWs)   bands (ev):

   -45.9565 -22.4397 -22.2069 -22.1962  -6.5616  -6.1897  -5.8627  -5.1598
    -5.1015  -5.0901  -5.0064  -4.9374   3.1555   6.0959   6.8105   7.1910
     7.7827   8.0389   9.0762   9.1709   9.5628  10.3963  12.8595  13.9901
    14.3822  14.4901

          k = 0.4500 0.0500 0.1500 (  5079 PWs)   bands (ev):

   -45.9565 -22.3803 -22.2527 -22.2071  -6.7979  -5.9746  -5.9192  -5.1414
    -5.0919  -5.0703  -5.0596  -4.9206   3.2355   6.3812   7.1770   7.4636
     7.8804   8.1088   8.3578   9.1555   9.4207  10.2172  13.2007  13.9527
    14.0181  14.1839

          k = 0.2500 0.0500 0.2500 (  5076 PWs)   bands (ev):

   -45.9567 -22.3807 -22.2252 -22.2247  -6.8923  -6.0665  -5.9155  -5.1135
    -5.0850  -5.0778  -4.9705  -4.9480   3.4172   6.7799   6.9694   7.3342
     7.6826   7.9328   9.0172   9.0609   9.6086   9.6264  13.4039  13.5686
    13.7727  15.1017

          k =-0.0500 0.3500 0.2500 (  5080 PWs)   bands (ev):

   -45.9564 -22.4280 -22.2241 -22.1960  -6.6100  -6.1368  -5.8880  -5.1296
    -5.1125  -5.0830  -4.9697  -4.9044   3.1599   6.2829   6.9290   7.1235
     7.7471   8.0267   8.5070   9.1659   9.4131  10.0821  13.2818  14.1680
    14.2709  14.8502

          k = 0.3500 0.0500 0.2500 (  5080 PWs)   bands (ev):

   -45.9564 -22.3800 -22.2416 -22.2242  -6.8156  -5.9867  -5.8668  -5.1150
    -5.0870  -5.0780  -4.9832  -4.9491   3.2278   6.6124   6.8787   7.2650
     7.5681   7.9249   8.7127   9.1559   9.5713   9.8956  13.4248  13.8306
    14.0298  14.7582

          k =-0.0500 0.4500 0.2500 (  5084 PWs)   bands (ev):

   -45.9561 -22.4388 -22.2236 -22.1956  -6.5004  -6.1372  -5.8534  -5.1451
    -5.1124  -5.0883  -4.9708  -4.8951   3.0366   6.0249   6.8600   7.1289
     7.6561   8.0208   8.5574   9.2124   9.3904  10.1338  13.2669  14.2730
    14.4749  14.7827

          k = 0.4500 0.0500 0.2500 (  5084 PWs)   bands (ev):

   -45.9562 -22.3796 -22.2519 -22.2238  -6.7744  -5.9102  -5.8512  -5.1233
    -5.0877  -5.0814  -4.9793  -4.9556   3.1180   6.3797   6.9645   7.1105
     7.6059   8.0913   8.3683   9.2440   9.5029  10.0543  13.4018  14.0424
    14.2338  14.5273

          k = 0.3500 0.0500 0.3500 (  5079 PWs)   bands (ev):

   -45.9560 -22.3793 -22.2410 -22.2407  -6.7816  -5.8974  -5.8043  -5.1072
    -5.0923  -5.0746  -4.9941  -4.9236   3.0851   6.5156   6.7174   7.1404
     7.2625   8.0168   8.7519   8.9138   9.5541  10.0504  13.6908  13.8993
    14.1732  15.0152

          k =-0.0500 0.4500 0.3500 (  5079 PWs)   bands (ev):

   -45.9558 -22.4379 -22.2401 -22.1949  -6.4700  -6.0817  -5.7930  -5.1350
    -5.1190  -5.0861  -5.0030  -4.8025   2.9228   5.9637   6.7764   7.0533
     7.6981   7.8588   8.3769   8.9150   9.2725  10.0712  13.6240  14.4277
    14.4770  15.3161

          k = 0.4500 0.0500 0.3500 (  5079 PWs)   bands (ev):

   -45.9558 -22.3789 -22.2511 -22.2404  -6.7682  -5.8156  -5.7755  -5.1095
    -5.0902  -5.0821  -5.0067  -4.8970   2.9984   6.3139   6.7508   6.9751
     7.2186   8.2019   8.4962   8.9419   9.4089  10.2067  13.7745  14.0709
    14.2944  15.0689

          k = 0.4500 0.0500 0.4500 (  5100 PWs)   bands (ev):

   -45.9556 -22.3785 -22.2506 -22.2506  -6.7709  -5.7406  -5.7271  -5.1073
    -5.0872  -5.0812  -5.0393  -4.8530   2.9239   6.1877   6.6946   6.9642
     6.9837   8.3633   8.5651   8.6821   9.2144  10.3835  14.0590  14.1053
    14.3233  15.3890

          k =-0.1500 0.2500 0.1500 (  5084 PWs)   bands (ev):

   -45.9568 -22.4108 -22.2078 -22.2076  -6.8250  -6.1551  -5.9592  -5.1157
    -5.1091  -5.0668  -4.9391  -4.9358   3.5012   6.6433   6.6906   7.3000
     7.9587   8.0947   8.6598   9.2763   9.5688   9.7487  13.0620  13.8067
    13.8958  15.1614

          k =-0.1500 0.3500 0.1500 (  5082 PWs)   bands (ev):

   -45.9565 -22.4283 -22.2070 -22.2069  -6.6381  -6.1545  -5.9222  -5.1383
    -5.1066  -5.0515  -4.9603  -4.9343   3.2715   6.3719   6.5296   7.2127
     7.9099   8.0177   8.6230   9.2832   9.6140  10.0243  12.9987  14.1202
    14.1619  14.7177

          k =-0.1500 0.4500 0.1500 (  5084 PWs)   bands (ev):

   -45.9563 -22.4392 -22.2066 -22.2065  -6.5043  -6.1694  -5.8981  -5.1509
    -5.1049  -5.0336  -4.9759  -4.9417   3.1390   6.0995   6.4577   7.2397
     7.8936   7.9699   8.6408   9.2771   9.6434  10.1543  12.9494  14.2913
    14.3217  14.5562

          k = 0.2500 0.1500 0.2500 (  5081 PWs)   bands (ev):

   -45.9565 -22.3916 -22.2247 -22.2243  -6.7961  -6.0758  -5.9250  -5.1147
    -5.0997  -5.0570  -4.9484  -4.9174   3.3974   6.5973   6.7288   7.1397
     7.5947   7.9627   8.9570   9.2765   9.5313   9.6429  13.3953  13.6745
    13.7985  14.9671

          k =-0.1500 0.3500 0.2500 (  5080 PWs)   bands (ev):

   -45.9561 -22.4275 -22.2236 -22.2063  -6.5475  -6.1303  -5.9226  -5.1301
    -5.1060  -5.0329  -4.9422  -4.8885   3.2039   6.2599   6.4846   6.9599
     7.6415   7.9989   8.5288   9.3856   9.5197   9.8683  13.2490  14.1013
    14.1586  14.9739

          k = 0.3500 0.1500 0.2500 (  5080 PWs)   bands (ev):

   -45.9562 -22.3909 -22.2411 -22.2238  -6.7212  -6.0169  -5.8900  -5.1142
    -5.0916  -5.0358  -4.9486  -4.9193   3.2607   6.5026   6.6273   6.8730
     7.4430   7.9460   8.9331   9.2206   9.4615   9.8355  13.4035  13.8155
    14.0505  14.9101

          k =-0.1500 0.4500 0.2500 (  5077 PWs)   bands (ev):

   -45.9559 -22.4383 -22.2232 -22.2059  -6.4323  -6.1402  -5.9109  -5.1347
    -5.1026  -5.0086  -4.9546  -4.8791   3.1023   6.0306   6.3460   6.9602
     7.6476   8.0331   8.4108   9.3911   9.5435   9.8538  13.2429  14.2916
    14.3467  15.0536

          k = 0.4500 0.1500 0.2500 (  5077 PWs)   bands (ev):

   -45.9559 -22.3905 -22.2514 -22.2233  -6.6819  -5.9715  -5.8680  -5.1132
    -5.0840  -5.0139  -4.9543  -4.9266   3.1758   6.3620   6.5608   6.7737
     7.4199   7.9912   8.7952   9.2656   9.3571   9.9185  13.4298  13.9501
    14.2608  14.8924

          k = 0.3500 0.1500 0.3500 (  5081 PWs)   bands (ev):

   -45.9558 -22.3902 -22.2405 -22.2402  -6.6886  -5.9442  -5.8549  -5.1018
    -5.0865  -5.0081  -4.9327  -4.9060   3.1825   6.4348   6.4529   6.6592
     7.1120   7.9347   8.9564   9.1536   9.2810  10.0536  13.5727  13.9131
    14.1657  15.1912

          k =-0.1500 0.4500 0.3500 (  5079 PWs)   bands (ev):

   -45.9556 -22.4374 -22.2397 -22.2052  -6.3956  -6.1151  -5.8679  -5.1229
    -5.0841  -4.9994  -4.9699  -4.7865   3.0550   5.9379   6.4258   6.6758
     7.1630   8.0521   8.4953   9.0772   9.3307   9.9722  13.6001  14.3012
    14.4020  15.5207

          k = 0.4500 0.1500 0.3500 (  5079 PWs)   bands (ev):

   -45.9556 -22.3898 -22.2506 -22.2399  -6.6773  -5.8876  -5.8329  -5.0975
    -5.0750  -4.9897  -4.9444  -4.8824   3.1279   6.2878   6.4345   6.5216
     7.0028   7.9716   8.8343   9.0837   9.1883  10.1946  13.7318  13.9898
    14.3053  15.3865

          k = 0.4500 0.1500 0.4500 (  5073 PWs)   bands (ev):

   -45.9554 -22.3893 -22.2501 -22.2501  -6.6823  -5.8241  -5.8117  -5.0918
    -5.0559  -4.9751  -4.9631  -4.8393   3.0906   6.1683   6.4163   6.4465
     6.7602   8.0005   8.6330   9.0730   9.0753  10.3781  13.9860  14.0524
    14.3459  15.6902

          k =-0.2500 0.3500 0.2500 (  5072 PWs)   bands (ev):

   -45.9558 -22.4267 -22.2231 -22.2228  -6.4602  -6.1181  -5.9567  -5.1146
    -5.0916  -4.9895  -4.8985  -4.8499   3.2647   6.0724   6.2979   6.6483
     7.5153   7.5179   8.6663   9.5428   9.6055   9.7299  13.3080  14.0644
    14.1599  15.2127

          k =-0.2500 0.4500 0.2500 (  5073 PWs)   bands (ev):

   -45.9556 -22.4375 -22.2226 -22.2224  -6.3386  -6.1445  -5.9667  -5.1142
    -5.0834  -4.9499  -4.9012  -4.8338   3.2053   5.9325   6.0730   6.6144
     7.5075   7.5131   8.4695   9.4702   9.6379   9.7705  13.3905  14.2111
    14.3514  15.4767

          k = 0.3500 0.2500 0.3500 (  5057 PWs)   bands (ev):

   -45.9555 -22.4077 -22.2397 -22.2395  -6.5334  -6.0120  -5.9244  -5.0809
    -5.0784  -4.9379  -4.8611  -4.8413   3.3453   6.0411   6.0865   6.4797
     7.0613   7.3692   8.4912   9.4919   9.5615  10.0605  13.5493  14.0235
    14.1979  15.5006

          k =-0.2500 0.4500 0.3500 (  5063 PWs)   bands (ev):

   -45.9552 -22.4366 -22.2390 -22.2218  -6.2856  -6.1546  -5.9601  -5.0973
    -5.0546  -4.9320  -4.8556  -4.7550   3.2991   5.7627   6.0772   6.3033
     6.9391   7.4875   8.0706   9.4164   9.7971   9.9189  13.6840  14.2217
    14.3927  15.8493

          k = 0.4500 0.2500 0.3500 (  5063 PWs)   bands (ev):

   -45.9552 -22.4073 -22.2498 -22.2392  -6.5268  -5.9848  -5.9065  -5.0741
    -5.0645  -4.8902  -4.8466  -4.8310   3.3628   5.9462   6.0254   6.2788
     6.9343   7.3606   8.1556   9.5316   9.5566  10.1878  13.7993  14.0077
    14.3343  15.8059

          k = 0.4500 0.2500 0.4500 (  5070 PWs)   bands (ev):

   -45.9550 -22.4068 -22.2494 -22.2493  -6.5366  -5.9274  -5.9155  -5.0648
    -5.0513  -4.8417  -4.8261  -4.8087   3.4169   5.8880   5.8972   6.1473
     6.7498   7.3169   7.7543   9.5699   9.5779  10.3696  14.0197  14.0997
    14.3690  16.1172

          k =-0.3500 0.4500 0.3500 (  5056 PWs)   bands (ev):

   -45.9549 -22.4358 -22.2384 -22.2383  -6.2470  -6.1337  -6.0174  -5.0739
    -5.0368  -4.8664  -4.7558  -4.7101   3.5957   5.5092   5.9021   6.0190
     6.7704   7.0492   7.3444   9.7777   9.9257  10.0816  13.9078  14.2812
    14.4009  16.2151

          k = 0.4500 0.3500 0.4500 (  5051 PWs)   bands (ev):

   -45.9547 -22.4242 -22.2486 -22.2486  -6.3881  -6.0108  -5.9982  -5.0490
    -5.0377  -4.7880  -4.7126  -4.7070   3.8719   5.4951   5.5110   6.0327
     6.7526   6.7573   6.8193   9.8942   9.9059  10.3615  14.1878  14.2724
    14.3886  16.5598

     the Fermi energy is    10.4279 ev

!    total energy              =    -364.94569025 Ry
     Harris-Foulkes estimate   =    -364.94569025 Ry
     estimated scf accuracy    <          9.3E-10 Ry

     The total energy is the sum of the following terms:

     one-electron contribution =     -84.07579038 Ry
     hartree contribution      =      71.46694387 Ry
     xc contribution           =     -85.85278035 Ry
     ewald contribution        =    -266.49001663 Ry
     smearing contrib. (-TS)   =       0.00595324 Ry

     convergence has been achieved in   8 iterations

     Forces acting on atoms (cartesian axes, Ry/au):

     atom    1 type  1   force =     0.00000000    0.02728456    0.00000000
     atom    2 type  2   force =     0.00000000   -0.08544295    0.00000000
     atom    3 type  3   force =     0.00000000    0.01355991    0.00000000
     atom    4 type  3   force =     0.00000000    0.03103857    0.00000000
     atom    5 type  3   force =     0.00000000    0.01355991    0.00000000

     Total force =     0.036485     Total SCF correction =     0.000025


     Computing stress (Cartesian axis) and pressure

          total   stress  (Ry/bohr**3)                   (kbar)     P=   32.00
   0.00005344   0.00000000   0.00000000          7.86      0.00      0.00
   0.00000000   0.00054573   0.00000000          0.00     80.28      0.00
   0.00000000   0.00000000   0.00005344          0.00      0.00      7.86


     number of scf cycles    =   2
     number of bfgs steps    =   1

     energy   old            =    -364.9420150114 Ry
     energy   new            =    -364.9456902457 Ry

     CASE: energy  _new < energy  _old

     new trust radius        =       0.0685265517 bohr
     new conv_thr            =       0.0000000031 Ry


ATOMIC_POSITIONS (crystal)
Pb       0.000000000   0.000000000   0.000000000    0   0   0
Ti       0.500000000   0.570000000   0.500000000    0   0   0
O        0.500000000   0.504927040   0.000000000
O        0.500000000   0.018428487   0.500000000
O        0.000000000   0.504927040   0.500000000



     Writing output data file PbTiO3.save/
     NEW-OLD atomic charge density approx. for the potential

     Check: negative core charge=   -0.000006

     total cpu time spent up to now is      545.3 secs

     Self-consistent Calculation

     iteration #  1     ecut=    80.00 Ry     beta= 0.70
     Davidson diagonalization with overlap
     ethr =  1.00E-06,  avg # of iterations =  4.8

     total cpu time spent up to now is      579.6 secs

     total energy              =    -364.94703451 Ry
     Harris-Foulkes estimate   =    -364.94804071 Ry
     estimated scf accuracy    <       0.00146524 Ry

     iteration #  2     ecut=    80.00 Ry     beta= 0.70
     Davidson diagonalization with overlap
     ethr =  3.33E-06,  avg # of iterations =  4.5

     total cpu time spent up to now is      606.9 secs

     total energy              =    -364.94660305 Ry
     Harris-Foulkes estimate   =    -364.94853673 Ry
     estimated scf accuracy    <       0.00527482 Ry

     iteration #  3     ecut=    80.00 Ry     beta= 0.70
     Davidson diagonalization with overlap
     ethr =  3.33E-06,  avg # of iterations =  3.9

     total cpu time spent up to now is      632.3 secs

     total energy              =    -364.94759530 Ry
     Harris-Foulkes estimate   =    -364.94767858 Ry
     estimated scf accuracy    <       0.00025550 Ry

     iteration #  4     ecut=    80.00 Ry     beta= 0.70
     Davidson diagonalization with overlap
     ethr =  5.81E-07,  avg # of iterations =  2.7

     total cpu time spent up to now is      653.1 secs

     total energy              =    -364.94763108 Ry
     Harris-Foulkes estimate   =    -364.94763655 Ry
     estimated scf accuracy    <       0.00001093 Ry

     iteration #  5     ecut=    80.00 Ry     beta= 0.70
     Davidson diagonalization with overlap
     ethr =  2.48E-08,  avg # of iterations =  3.4

     total cpu time spent up to now is      676.0 secs

     total energy              =    -364.94763476 Ry
     Harris-Foulkes estimate   =    -364.94763495 Ry
     estimated scf accuracy    <       0.00000048 Ry

     iteration #  6     ecut=    80.00 Ry     beta= 0.70
     Davidson diagonalization with overlap
     ethr =  1.09E-09,  avg # of iterations =  3.8

     total cpu time spent up to now is      701.4 secs

     total energy              =    -364.94763482 Ry
     Harris-Foulkes estimate   =    -364.94763511 Ry
     estimated scf accuracy    <       0.00000080 Ry

     iteration #  7     ecut=    80.00 Ry     beta= 0.70
     Davidson diagonalization with overlap
     ethr =  1.09E-09,  avg # of iterations =  3.0

     total cpu time spent up to now is      723.2 secs

     total energy              =    -364.94763496 Ry
     Harris-Foulkes estimate   =    -364.94763497 Ry
     estimated scf accuracy    <       0.00000003 Ry

     iteration #  8     ecut=    80.00 Ry     beta= 0.70
     Davidson diagonalization with overlap
     ethr =  6.78E-11,  avg # of iterations =  2.6

     total cpu time spent up to now is      744.5 secs

     End of self-consistent calculation

          k = 0.0500 0.0500 0.0500 (  5047 PWs)   bands (ev):

   -46.0386 -22.4033 -22.2816 -22.2816  -7.2360  -6.2372  -6.0967  -5.0812
    -5.0550  -5.0548  -4.9173  -4.8934   4.4240   6.8032   6.8497   7.0260
     8.6107   8.6441   9.1259   9.1908   9.4924   9.5338  12.5205  13.2004
    13.2202  14.7757

          k = 0.0500 0.0500 0.1500 (  5074 PWs)   bands (ev):

   -46.0384 -22.4029 -22.2920 -22.2812  -7.1579  -6.2027  -6.0689  -5.0887
    -5.0633  -5.0544  -4.9457  -4.8947   4.1320   6.8596   6.9355   7.1981
     8.4374   8.6282   9.0464   9.1303   9.3576   9.5301  12.8297  13.1832
    13.2185  15.0030

          k = 0.0500 0.0500 0.2500 (  5093 PWs)   bands (ev):

   -46.0381 -22.4022 -22.3088 -22.2806  -7.0274  -6.1412  -6.0255  -5.1010
    -5.0775  -5.0537  -5.0001  -4.8923   3.7660   6.8725   7.0454   7.2410
     8.4064   8.4954   8.9397   9.0415   9.2658   9.5759  13.2086  13.2813
    13.4224  14.9645

          k = 0.0500 0.0500 0.3500 (  5090 PWs)   bands (ev):

   -46.0377 -22.4016 -22.3255 -22.2800  -6.8911  -6.0683  -5.9876  -5.1169
    -5.0966  -5.0538  -5.0521  -4.8915   3.4766   6.5791   7.2401   7.4033
     8.1699   8.3294   8.8401   8.9358   9.3347   9.9409  13.2107  13.6776
    13.7908  14.1933

          k = 0.0500 0.0500 0.4500 (  5073 PWs)   bands (ev):

   -46.0375 -22.4011 -22.3359 -22.2796  -6.8034  -6.0068  -5.9766  -5.1402
    -5.1102  -5.0743  -5.0525  -4.8923   3.3245   6.3379   7.4568   7.6560
     7.8848   8.0320   8.8425   8.8732   9.3850  10.3784  13.1745  13.5071
    13.9149  14.0636

          k = 0.0500 0.1500 0.1500 (  5079 PWs)   bands (ev):

   -46.0382 -22.4139 -22.2916 -22.2808  -7.0610  -6.1849  -6.0405  -5.0885
    -5.0745  -5.0614  -4.9362  -4.9174   3.9104   6.8127   6.9094   7.3361
     8.2556   8.4663   8.9108   9.1801   9.3412   9.6262  12.8287  13.3891
    13.4461  15.0842

          k = 0.0500 0.1500 0.2500 (  5077 PWs)   bands (ev):

   -46.0379 -22.4132 -22.3083 -22.2802  -6.9347  -6.1309  -6.0057  -5.1027
    -5.0871  -5.0609  -4.9671  -4.9084   3.6180   6.7789   7.0368   7.2829
     8.1817   8.3459   8.7951   9.0408   9.2351   9.7698  13.2625  13.4405
    13.5915  15.0454

          k = 0.0500 0.1500 0.3500 (  5080 PWs)   bands (ev):

   -46.0375 -22.4124 -22.3250 -22.2796  -6.8045  -6.0739  -5.9699  -5.1195
    -5.0993  -5.0606  -4.9921  -4.9068   3.3716   6.5566   7.1774   7.3270
     7.9610   8.2318   8.7432   8.9769   9.2115  10.0010  13.4205  13.6675
    13.9062  14.3608

          k = 0.0500 0.1500 0.4500 (  5079 PWs)   bands (ev):

   -46.0373 -22.4120 -22.3353 -22.2792  -6.7218  -6.0370  -5.9470  -5.1325
    -5.1095  -5.0603  -4.9998  -4.9111   3.2378   6.3363   7.3123   7.4963
     7.7490   8.0107   8.7436   9.0541   9.1759  10.1924  13.3918  13.8714
    13.9136  14.1424

          k = 0.0500 0.2500 0.2500 (  5076 PWs)   bands (ev):

   -46.0375 -22.4307 -22.3076 -22.2795  -6.7808  -6.1203  -5.9635  -5.1052
    -5.0937  -5.0688  -4.9461  -4.9183   3.3931   6.6248   7.0271   7.1708
     7.9607   8.1183   8.5695   9.0839   9.3990   9.9369  13.2511  13.7781
    13.8543  14.9869

          k = 0.0500 0.2500 0.3500 (  5080 PWs)   bands (ev):

   -46.0372 -22.4299 -22.3242 -22.2789  -6.6690  -6.0864  -5.9188  -5.1155
    -5.0979  -5.0700  -4.9557  -4.8962   3.2047   6.4896   6.9628   7.2368
     7.7411   8.1007   8.4843   8.8675   9.5125   9.9324  13.6241  13.7793
    14.0731  14.6754

          k = 0.0500 0.2500 0.4500 (  5084 PWs)   bands (ev):

   -46.0369 -22.4294 -22.3344 -22.2785  -6.6028  -6.0667  -5.8822  -5.1200
    -5.1075  -5.0711  -4.9496  -4.8916   3.0979   6.3136   6.9848   7.2934
     7.5672   8.1252   8.4420   8.8303   9.5497   9.8767  13.7497  13.8623
    14.2581  14.4749

          k = 0.0500 0.3500 0.3500 (  5079 PWs)   bands (ev):

   -46.0368 -22.4473 -22.3234 -22.2782  -6.5508  -6.0719  -5.8584  -5.1146
    -5.1012  -5.0730  -4.9794  -4.8360   3.0429   6.2522   6.7602   7.1813
     7.6651   7.9420   8.3824   8.8724   9.5199   9.9579  13.6032  14.1150
    14.2383  15.0324

          k = 0.0500 0.3500 0.4500 (  5079 PWs)   bands (ev):

   -46.0366 -22.4468 -22.3336 -22.2778  -6.5180  -6.0440  -5.8096  -5.1149
    -5.1059  -5.0756  -4.9874  -4.8008   2.9595   6.1739   6.6232   7.3054
     7.4198   8.1084   8.3061   8.7439   9.3572   9.9952  13.8149  14.1129
    14.3908  15.0392

          k = 0.0500 0.4500 0.4500 (  5100 PWs)   bands (ev):

   -46.0364 -22.4574 -22.3330 -22.2774  -6.4909  -5.9960  -5.7599  -5.1180
    -5.1059  -5.0757  -5.0115  -4.7487   2.8752   5.9554   6.5399   7.2107
     7.4794   7.9866   8.3824   8.7152   9.0494  10.1746  13.7848  14.3336
    14.4782  15.4256

          k = 0.1500 0.1500 0.1500 (  5095 PWs)   bands (ev):

   -46.0380 -22.4134 -22.2913 -22.2910  -6.9890  -6.1591  -6.0191  -5.0958
    -5.0797  -5.0621  -4.9361  -4.9163   3.7643   6.7709   6.8451   7.4328
     8.1140   8.3228   8.8340   9.2467   9.4935   9.4965  13.0423  13.3721
    13.4321  15.5503

          k = 0.1500 0.1500 0.2500 (  5084 PWs)   bands (ev):

   -46.0376 -22.4127 -22.3079 -22.2905  -6.8722  -6.1145  -5.9840  -5.1073
    -5.0827  -5.0594  -4.9518  -4.9084   3.5416   6.7237   6.8388   7.2989
     7.9317   8.1576   8.9175   9.2033   9.3554   9.6962  13.2982  13.4420
    13.5941  15.1142

          k = 0.1500 0.1500 0.3500 (  5082 PWs)   bands (ev):

   -46.0373 -22.4120 -22.3246 -22.2899  -6.7564  -6.0648  -5.9481  -5.1180
    -5.0755  -5.0558  -4.9738  -4.9069   3.3379   6.5466   6.8620   7.1740
     7.7533   8.1889   8.7655   9.1827   9.3547   9.8924  13.2827  13.7023
    13.9080  14.6003

          k = 0.1500 0.1500 0.4500 (  5084 PWs)   bands (ev):

   -46.0371 -22.4116 -22.3348 -22.2895  -6.6860  -6.0310  -5.9249  -5.1219
    -5.0683  -5.0529  -4.9878  -4.9121   3.2222   6.3403   6.8706   7.1954
     7.6693   8.2953   8.5183   9.2694   9.3277   9.9892  13.2286  13.9022
    14.1402  14.3395

          k = 0.1500 0.2500 0.2500 (  5081 PWs)   bands (ev):

   -46.0373 -22.4303 -22.3072 -22.2898  -6.7168  -6.1096  -5.9664  -5.1088
    -5.0942  -5.0460  -4.9279  -4.9011   3.3871   6.5538   6.6877   7.1053
     7.7097   8.0113   8.7959   9.3007   9.4556   9.7989  13.2679  13.6959
    13.8164  14.9474

          k = 0.1500 0.2500 0.3500 (  5080 PWs)   bands (ev):

   -46.0369 -22.4295 -22.3238 -22.2892  -6.6129  -6.0898  -5.9276  -5.1113
    -5.0819  -5.0393  -4.9295  -4.8812   3.2492   6.4494   6.6665   6.8990
     7.3839   8.0644   8.9236   9.0508   9.5183   9.7799  13.4564  13.7364
    14.0363  14.8846

          k = 0.1500 0.2500 0.4500 (  5077 PWs)   bands (ev):
[...]
     7.3974   7.4214   9.0471   9.1189   9.5132   9.6363  13.2396  13.6184
    13.7136  15.3100

          k = 0.2500 0.2500 0.3500 (  5072 PWs)   bands (ev):

   -46.2032 -22.5249 -22.5099 -22.4921  -6.7459  -6.4057  -6.1115  -4.8539
    -4.8388  -4.7507  -4.6146  -4.5013   3.2526   6.1273   6.1703   6.5117
     7.0945   7.4701   8.9638   9.2832   9.4734   9.6319  13.3959  13.6702
    13.9063  15.5019

          k = 0.2500 0.2500 0.4500 (  5073 PWs)   bands (ev):

   -46.2030 -22.5244 -22.5205 -22.4917  -6.6812  -6.3638  -6.1375  -4.8514
    -4.8268  -4.7276  -4.5792  -4.5083   3.1675   5.9818   6.0303   6.4060
     6.9978   7.5445   8.8136   9.3517   9.3957   9.6666  13.4827  13.7558
    14.0887  15.7846

          k = 0.2500 0.3500 0.3500 (  5057 PWs)   bands (ev):

   -46.2028 -22.5417 -22.5092 -22.4915  -6.7091  -6.4108  -5.9990  -4.8451
    -4.8221  -4.7300  -4.5942  -4.4701   3.3194   5.8826   5.9656   6.3701
     6.7087   7.2299   8.8227   9.2822   9.4576   9.8206  13.4837  13.8862
    14.0725  15.7025

          k = 0.2500 0.3500 0.4500 (  5063 PWs)   bands (ev):

   -46.2026 -22.5411 -22.5198 -22.4910  -6.6720  -6.3649  -6.0128  -4.8400
    -4.8082  -4.7106  -4.5605  -4.4558   3.2812   5.7322   5.8843   6.1625
     6.6254   7.2673   8.5436   9.2838   9.4710   9.9341  13.7221  13.8428
    14.2101  16.0927

          k = 0.2500 0.4500 0.4500 (  5070 PWs)   bands (ev):

   -46.2024 -22.5515 -22.5193 -22.4906  -6.6742  -6.3657  -5.9245  -4.8369
    -4.7920  -4.6979  -4.5500  -4.4236   3.3474   5.6167   5.7331   6.0704
     6.3697   7.2072   8.2467   9.2959   9.4893  10.0921  13.7751  14.0487
    14.3146  16.2693

          k = 0.3500 0.3500 0.3500 (  5055 PWs)   bands (ev):

   -46.2025 -22.5409 -22.5085 -22.5085  -6.5785  -6.4240  -6.0395  -4.8146
    -4.8146  -4.6724  -4.5253  -4.4497   3.3230   5.6651   5.8052   6.1209
     6.7195   6.7401   8.2988   9.5552   9.7203   9.8596  13.6600  14.0203
    14.0295  16.0992

          k = 0.3500 0.3500 0.4500 (  5056 PWs)   bands (ev):

   -46.2023 -22.5404 -22.5190 -22.5080  -6.5263  -6.3985  -6.0666  -4.8110
    -4.7947  -4.6312  -4.4859  -4.4382   3.3024   5.5631   5.7660   5.9208
     6.5207   6.7794   7.8832   9.6728   9.7880   9.9411  13.8627  13.9756
    14.1640  16.5114

          k = 0.3500 0.4500 0.4500 (  5051 PWs)   bands (ev):

   -46.2021 -22.5507 -22.5186 -22.5076  -6.5356  -6.4120  -5.9752  -4.8011
    -4.7856  -4.6145  -4.4573  -4.4029   3.4840   5.3594   5.5706   5.8410
     6.3501   6.6376   7.4784   9.6923   9.9008  10.0996  13.9526  14.1299
    14.2630  16.7434

          k = 0.4500 0.4500 0.4500 (  5034 PWs)   bands (ev):

   -46.2019 -22.5502 -22.5181 -22.5181  -6.4518  -6.4359  -6.0045  -4.7857
    -4.7752  -4.5608  -4.4010  -4.3907   3.5327   5.3793   5.4452   5.7209
     6.3411   6.3619   6.9034   9.8721  10.0932  10.1098  14.1184  14.2291
    14.2395  17.1636

          k =-0.0500 0.1500 0.0500 (  5074 PWs)   bands (ev):

   -46.2050 -22.5108 -22.4668 -22.4668  -7.4003  -6.5211  -6.1464  -4.8567
    -4.8567  -4.8131  -4.7767  -4.5507   4.2908   6.6226   6.6430   7.4674
     8.6106   8.6204   8.9903   8.9971   9.1943   9.3215  12.3398  13.1041
    13.1312  14.5744

          k =-0.0500 0.2500 0.0500 (  5093 PWs)   bands (ev):

   -46.2046 -22.5280 -22.4662 -22.4661  -7.2890  -6.4898  -6.0748  -4.8684
    -4.8637  -4.8120  -4.7583  -4.5868   3.9541   6.6882   6.6960   7.1986
     8.3639   8.3867   8.9551   9.0016   9.2121   9.5284  12.3418  13.5099
    13.5459  14.5790

          k =-0.0500 0.3500 0.0500 (  5090 PWs)   bands (ev):

   -46.2043 -22.5451 -22.4655 -22.4655  -7.1780  -6.4573  -5.9977  -4.8799
    -4.8714  -4.8110  -4.7382  -4.6243   3.6754   6.5475   6.7734   6.9263
     8.1505   8.1808   8.8950   9.0717   9.2416  10.0037  12.3432  13.8987
    13.9392  14.1867

          k =-0.0500 0.4500 0.0500 (  5073 PWs)   bands (ev):

   -46.2041 -22.5556 -22.4651 -22.4651  -7.1099  -6.4366  -5.9469  -4.8869
    -4.8764  -4.8104  -4.7251  -4.6483   3.5249   6.2616   6.8240   6.9477
     8.0278   8.0494   8.8554   9.1114   9.2626  10.4448  12.3428  13.5044
    14.1309  14.1901

          k = 0.1500 0.0500 0.1500 (  5079 PWs)   bands (ev):

   -46.2048 -22.4994 -22.4775 -22.4774  -7.2940  -6.4987  -6.1830  -4.8787
    -4.8552  -4.8232  -4.7454  -4.5253   3.9894   6.6020   6.8369   7.4133
     8.2980   8.4203   8.9237   8.9930   9.0933   9.6884  12.8230  12.9102
    12.9702  15.1341

          k =-0.0500 0.2500 0.1500 (  5077 PWs)   bands (ev):

   -46.2044 -22.5275 -22.4768 -22.4658  -7.2111  -6.4781  -6.0647  -4.8693
    -4.8572  -4.8198  -4.7527  -4.5667   3.7967   6.5574   6.7568   7.2969
     8.0524   8.2844   8.6700   9.0094   9.1590   9.7542  12.6332  13.5031
    13.5695  14.9072

          k = 0.2500 0.0500 0.1500 (  5077 PWs)   bands (ev):

   -46.2044 -22.4994 -22.4941 -22.4768  -7.1469  -6.4642  -6.1886  -4.8924
    -4.8527  -4.8203  -4.7177  -4.5301   3.6605   6.5589   6.8799   7.2718
     7.9689   8.3474   8.7313   9.0565   9.1149   9.8709  12.9256  13.1727
    13.2697  15.1492

          k =-0.0500 0.3500 0.1500 (  5080 PWs)   bands (ev):

   -46.2041 -22.5446 -22.4761 -22.4651  -7.1094  -6.4511  -5.9820  -4.8801
    -4.8515  -4.8190  -4.7408  -4.5924   3.5652   6.3848   6.7910   7.0376
     7.8909   8.1351   8.6029   9.0384   9.1521  10.1079  12.6272  13.8792
    13.9556  14.4368

          k = 0.3500 0.0500 0.1500 (  5080 PWs)   bands (ev):

   -46.2041 -22.5122 -22.4977 -22.4761  -6.9915  -6.4235  -6.2053  -4.9008
    -4.8471  -4.8139  -4.6847  -4.5517   3.3917   6.2696   6.9289   7.2895
     7.6889   8.2166   8.5942   9.0497   9.2190  10.1442  12.9422  13.5429
    13.6342  15.0453

          k =-0.0500 0.4500 0.1500 (  5079 PWs)   bands (ev):

   -46.2039 -22.5550 -22.4757 -22.4647  -7.0485  -6.4338  -5.9264  -4.8867
    -4.8485  -4.8185  -4.7325  -4.6088   3.4352   6.1544   6.7830   7.0207
     7.7991   8.0362   8.6068   9.0594   9.1326  10.3822  12.6188  13.9218
    14.1127  14.2011

          k = 0.4500 0.0500 0.1500 (  5079 PWs)   bands (ev):

   -46.2039 -22.5227 -22.4975 -22.4757  -6.8909  -6.3869  -6.2298  -4.9034
    -4.8436  -4.8088  -4.6414  -4.5916   3.2496   6.0013   7.0305   7.3029
     7.6539   7.9026   8.6403   9.0154   9.2766  10.3848  12.9385  13.7768
    13.8942  14.5813

          k = 0.2500 0.0500 0.2500 (  5076 PWs)   bands (ev):

   -46.2041 -22.4992 -22.4939 -22.4929  -7.0028  -6.4313  -6.2094  -4.8934
    -4.8501  -4.8020  -4.6858  -4.5327   3.3743   6.5465   6.7686   7.1983
     7.8587   8.0158   8.6511   8.9713   9.2687   9.9744  13.1562  13.2433
    13.4921  15.2808

          k =-0.0500 0.3500 0.2500 (  5080 PWs)   bands (ev):

   -46.2037 -22.5437 -22.4933 -22.4645  -7.0091  -6.4252  -5.9552  -4.8783
    -4.8364  -4.8242  -4.7359  -4.5450   3.3955   6.2216   6.8555   6.9552
     7.6861   7.7996   8.3651   8.7720   9.4523  10.0799  13.0478  13.9304
    14.0433  14.8209

          k = 0.3500 0.0500 0.2500 (  5080 PWs)   bands (ev):

   -46.2037 -22.5114 -22.4977 -22.4926  -6.8515  -6.3942  -6.2381  -4.8925
    -4.8399  -4.7759  -4.6545  -4.5504   3.1227   6.2842   6.7061   7.1902
     7.6854   8.0254   8.4189   9.0045   9.3690  10.0275  13.1957  13.5774
    13.7532  15.2144

          k =-0.0500 0.4500 0.2500 (  5084 PWs)   bands (ev):

   -46.2035 -22.5542 -22.4928 -22.4640  -6.9656  -6.4076  -5.8898  -4.8848
    -4.8308  -4.8133  -4.7392  -4.5465   3.2944   6.0146   6.7677   6.9600
     7.6467   7.7322   8.2783   8.7787   9.4727  10.1702  13.0390  14.1634
    14.2502  14.5703

          k = 0.4500 0.0500 0.2500 (  5084 PWs)   bands (ev):

   -46.2035 -22.5218 -22.4974 -22.4922  -6.7537  -6.3612  -6.2682  -4.8907
    -4.8322  -4.7518  -4.6221  -4.5841   2.9823   6.0139   6.7826   7.1081
     7.6946   7.9622   8.3245   9.0597   9.3879  10.0458  13.1924  13.8230
    13.9429  15.0652

          k = 0.3500 0.0500 0.3500 (  5079 PWs)   bands (ev):

   -46.2034 -22.5109 -22.5103 -22.4961  -6.7077  -6.3631  -6.2721  -4.8848
    -4.8219  -4.7325  -4.6245  -4.5621   2.8738   6.2137   6.4041   7.2354
     7.6470   7.9038   8.3541   8.8355   9.6151   9.8115  13.5239  13.6214
    13.9116  15.2643

          k =-0.0500 0.4500 0.3500 (  5079 PWs)   bands (ev):

   -46.2032 -22.5533 -22.5099 -22.4634  -6.9111  -6.3440  -5.8515  -4.8836
    -4.8402  -4.8055  -4.7208  -4.4888   3.1628   5.8940   6.4974   6.9815
     7.3247   7.7029   8.1774   8.5735   9.6316  10.0161  13.4307  14.1775
    14.3979  15.1434

          k = 0.4500 0.0500 0.3500 (  5079 PWs)   bands (ev):

   -46.2032 -22.5210 -22.5101 -22.4958  -6.6175  -6.3369  -6.2994  -4.8805
    -4.8067  -4.6921  -4.6055  -4.5857   2.7289   5.9771   6.4103   7.2308
     7.5549   8.0358   8.2257   8.7988   9.6032   9.7579  13.5663  13.8392
    14.0310  15.2482

          k = 0.4500 0.0500 0.4500 (  5100 PWs)   bands (ev):

   -46.2030 -22.5205 -22.5204 -22.4955  -6.5383  -6.3208  -6.3124  -4.8752
    -4.7825  -4.6429  -4.6014  -4.5985   2.5786   5.8560   6.2926   7.3461
     7.4065   8.1409   8.2172   8.6311   9.3368   9.9021  13.8317  13.8518
    14.1025  15.2331

          k =-0.1500 0.2500 0.1500 (  5084 PWs)   bands (ev):

   -46.2042 -22.5271 -22.4765 -22.4763  -7.1315  -6.4687  -6.0632  -4.8725
    -4.8515  -4.8211  -4.7332  -4.5497   3.6844   6.5546   6.5671   7.3124
     7.8660   7.9855   8.7351   9.0114   9.2909   9.7437  12.8211  13.4789
    13.6026  15.3498

          k =-0.1500 0.3500 0.1500 (  5082 PWs)   bands (ev):

   -46.2039 -22.5441 -22.4758 -22.4757  -7.0371  -6.4498  -5.9763  -4.8812
    -4.8342  -4.8174  -4.7271  -4.5671   3.5020   6.3792   6.5086   7.0122
     7.8328   7.8352   8.5899   9.0447   9.3032  10.0139  12.7837  13.8457
    13.9688  14.6746

          k =-0.1500 0.4500 0.1500 (  5084 PWs)   bands (ev):

   -46.2037 -22.5545 -22.4754 -22.4753  -6.9816  -6.4381  -5.9166  -4.8857
    -4.8268  -4.8099  -4.7246  -4.5789   3.3943   6.1467   6.4738   6.9452
     7.7625   7.8529   8.4904   9.0665   9.2967  10.1882  12.7493  14.0805
    14.1898  14.3450

          k = 0.2500 0.1500 0.2500 (  5081 PWs)   bands (ev):

   -46.2039 -22.5089 -22.4935 -22.4934  -6.9487  -6.4325  -6.1671  -4.8789
    -4.8535  -4.7955  -4.6752  -4.5233   3.3843   6.4632   6.6065   6.9026
     7.6680   7.9029   8.9030   8.9620   9.3483   9.8127  13.2509  13.3696
    13.5305  15.4569

          k =-0.1500 0.3500 0.2500 (  5080 PWs)   bands (ev):

   -46.2035 -22.5433 -22.4929 -22.4751  -6.9300  -6.4334  -5.9658  -4.8746
    -4.8387  -4.7935  -4.7018  -4.5272   3.3918   6.2052   6.4508   6.8116
     7.2980   7.7436   8.7309   8.9474   9.5006   9.8689  13.0823  13.8729
    14.0091  15.0262

          k = 0.3500 0.1500 0.2500 (  5080 PWs)   bands (ev):

   -46.2035 -22.5115 -22.5072 -22.4927  -6.8042  -6.3991  -6.1980  -4.8768
    -4.8410  -4.7668  -4.6385  -4.5318   3.1743   6.2589   6.5336   6.7104
     7.4086   7.9771   8.7208   9.0880   9.4242   9.8069  13.2828  13.5961
    13.7869  15.3703

          k =-0.1500 0.4500 0.2500 (  5077 PWs)   bands (ev):

   -46.2033 -22.5537 -22.4924 -22.4746  -6.8891  -6.4248  -5.8979  -4.8775
    -4.8316  -4.7742  -4.7061  -4.5270   3.3189   6.0230   6.3855   6.6620
     7.2699   7.7183   8.6371   8.9725   9.5206   9.8937  13.0644  14.1056
    14.2019  14.9245

          k = 0.4500 0.1500 0.2500 (  5077 PWs)   bands (ev):

   -46.2033 -22.5214 -22.5074 -22.4923  -6.7158  -6.3624  -6.2303  -4.8746
    -4.8320  -4.7425  -4.6025  -4.5581   3.0524   6.0096   6.4982   6.6874
     7.3088   8.0923   8.5409   9.1609   9.4500   9.7647  13.2709  13.7834
    13.9947  15.3918

          k = 0.3500 0.1500 0.3500 (  5081 PWs)   bands (ev):

   -46.2032 -22.5112 -22.5099 -22.5058  -6.6570  -6.3780  -6.2408  -4.8681
    -4.8205  -4.7185  -4.6025  -4.5350   2.9699   6.2063   6.3225   6.5829
     7.1091   7.9505   8.8585   8.9659   9.5368   9.6276  13.5155  13.6637
    13.9123  15.6069

          k =-0.1500 0.4500 0.3500 (  5079 PWs)   bands (ev):

   -46.2030 -22.5528 -22.5095 -22.4740  -6.8287  -6.3721  -5.8786  -4.8714
    -4.8238  -4.7677  -4.6710  -4.4747   3.2374   5.8787   6.2927   6.5041
     6.7238   7.7623   8.7042   8.8438   9.3617   9.9416  13.4387  14.0948
    14.3039  15.4703

          k = 0.4500 0.1500 0.3500 (  5079 PWs)   bands (ev):

   -46.2030 -22.5205 -22.5102 -22.5058  -6.5647  -6.3524  -6.2792  -4.8635
    -4.8043  -4.6767  -4.5782  -4.5519   2.8444   5.9721   6.3472   6.5528
     6.9651   8.0165   8.7293   9.0370   9.3136   9.7386  13.5798  13.8156
    14.0470  15.7982

          k = 0.4500 0.1500 0.4500 (  5073 PWs)   bands (ev):

   -46.2027 -22.5201 -22.5200 -22.5060  -6.4604  -6.3446  -6.3198  -4.8581
    -4.7808  -4.6248  -4.5653  -4.5602   2.7131   5.8488   6.2772   6.6424
     6.7253   8.0302   8.7706   8.9421   9.0259   9.8978  13.8121  13.8414
    14.1181  15.8422

          k =-0.2500 0.3500 0.2500 (  5072 PWs)   bands (ev):

   -46.2032 -22.5425 -22.4922 -22.4921  -6.8078  -6.4372  -5.9818  -4.8589
    -4.8357  -4.7596  -4.6473  -4.4980   3.3669   6.1067   6.1187   6.5646
     7.0775   7.3021   9.0047   9.1793   9.5565   9.6433  13.2254  13.9202
    13.9405  15.3297

          k =-0.2500 0.4500 0.2500 (  5073 PWs)   bands (ev):

   -46.2030 -22.5529 -22.4918 -22.4917  -6.7753  -6.4388  -5.9086  -4.8591
    -4.8256  -4.7388  -4.6435  -4.4914   3.3451   5.9994   6.0047   6.3193
     7.0344   7.2587   8.8933   9.2052   9.5171   9.6984  13.2423  14.1119
    14.1334  15.4164

          k = 0.3500 0.2500 0.3500 (  5057 PWs)   bands (ev):

   -46.2028 -22.5242 -22.5092 -22.5091  -6.6028  -6.4014  -6.1579  -4.8412
    -4.8177  -4.6965  -4.5645  -4.4919   3.1378   6.0237   6.0908   6.2001
     6.8121   7.3120   8.7885   9.4149   9.4985   9.6841  13.5399  13.7998
    13.9546  15.8225

          k =-0.2500 0.4500 0.3500 (  5063 PWs)   bands (ev):

   -46.2026 -22.5520 -22.5088 -22.4910  -6.6953  -6.4133  -5.9181  -4.8433
    -4.8085  -4.7133  -4.5840  -4.4506   3.3522   5.7872   5.8134   6.1895
     6.5493   7.1820   8.5933   9.2923   9.4688   9.9310  13.5410  14.0695
    14.2182  15.8942

          k = 0.4500 0.2500 0.3500 (  5063 PWs)   bands (ev):

   -46.2026 -22.5237 -22.5197 -22.5087  -6.5254  -6.3760  -6.1959  -4.8363
    -4.8004  -4.6546  -4.5322  -4.4955   3.0540   5.9338   5.9943   6.1046
     6.6456   7.3316   8.4899   9.4799   9.5117   9.7623  13.6833  13.8456
    14.0886  16.1944

          k = 0.4500 0.2500 0.4500 (  5070 PWs)   bands (ev):

   -46.2024 -22.5231 -22.5193 -22.5191  -6.4143  -6.3811  -6.2468  -4.8304
    -4.7785  -4.6023  -4.5034  -4.4946   2.9648   5.8268   6.0486   6.0505
     6.3680   7.2983   8.1155   9.5395   9.5429   9.8924  13.8669  13.9101
    14.1385  16.5287

          k =-0.3500 0.4500 0.3500 (  5056 PWs)   bands (ev):

   -46.2023 -22.5512 -22.5081 -22.5080  -6.5733  -6.4376  -5.9540  -4.8126
    -4.7985  -4.6549  -4.5013  -4.4238   3.4461   5.4993   5.6329   5.9817
     6.4994   6.6951   7.9560   9.5776   9.8205   9.9761  13.7576  14.1198
    14.1992  16.3474

          k = 0.4500 0.3500 0.4500 (  5051 PWs)   bands (ev):

   -46.2021 -22.5398 -22.5186 -22.5186  -6.4345  -6.4155  -6.1015  -4.8028
    -4.7764  -4.5782  -4.4400  -4.4301   3.2810   5.6068   5.6597   5.7922
     6.3428   6.6767   7.3857   9.8641   9.9223   9.9475  14.0225  14.0817
    14.1616  16.9058

     the Fermi energy is    10.4219 ev

!    total energy              =    -364.95819199 Ry
     Harris-Foulkes estimate   =    -364.95819199 Ry
     estimated scf accuracy    <          7.6E-11 Ry

     The total energy is the sum of the following terms:

     one-electron contribution =     -87.78064922 Ry
     hartree contribution      =      73.27089955 Ry
     xc contribution           =     -85.90267771 Ry
     ewald contribution        =    -264.55139864 Ry
     smearing contrib. (-TS)   =       0.00563402 Ry

     convergence has been achieved in   7 iterations

     Forces acting on atoms (cartesian axes, Ry/au):

     atom    1 type  1   force =     0.00000000    0.02756622    0.00000000
     atom    2 type  2   force =     0.00000000   -0.02746952    0.00000000
     atom    3 type  3   force =     0.00000000   -0.00001607    0.00000000
     atom    4 type  3   force =     0.00000000   -0.00006457    0.00000000
     atom    5 type  3   force =     0.00000000   -0.00001607    0.00000000

     Total force =     0.000068     Total SCF correction =     0.000017
     SCF correction compared to forces is large: reduce conv_thr to get better values


     Computing stress (Cartesian axis) and pressure

          total   stress  (Ry/bohr**3)                   (kbar)     P=   48.38
   0.00024914   0.00000000   0.00000000         36.65      0.00      0.00
   0.00000000   0.00048839   0.00000000          0.00     71.84      0.00
   0.00000000   0.00000000   0.00024914          0.00      0.00     36.65


     bfgs converged in  33 scf cycles and  32 bfgs steps
     (criteria: energy <  1.0E-04 Ry, force <  1.0E-03 Ry/Bohr)

     End of BFGS Geometry Optimization

     Final energy   =    -364.9581919938 Ry
Begin final coordinates

ATOMIC_POSITIONS (crystal)
Pb       0.000000000   0.000000000   0.000000000    0   0   0
Ti       0.500000000   0.570000000   0.500000000    0   0   0
O        0.500000000   0.620455532   0.000000000
O        0.500000000   0.115328521   0.500000000
O        0.000000000   0.620455532   0.500000000
End final coordinates



     Writing output data file PbTiO3.save/
 
     init_run     :      9.62s CPU     10.30s WALL (       1 calls)
     electrons    :   6563.87s CPU   6881.53s WALL (      33 calls)
     update_pot   :      9.14s CPU      9.76s WALL (      32 calls)
     forces       :     83.36s CPU    101.03s WALL (      33 calls)
     stress       :    364.76s CPU    410.52s WALL (      33 calls)

     Called by init_run:
     wfcinit      :      7.23s CPU      7.31s WALL (       1 calls)
     potinit      :      0.23s CPU      0.26s WALL (       1 calls)
     hinit0       :      1.31s CPU      1.34s WALL (       1 calls)

     Called by electrons:
     c_bands      :   5189.02s CPU   5228.18s WALL (     292 calls)
     sum_band     :   1097.59s CPU   1227.85s WALL (     292 calls)
     v_of_rho     :     64.62s CPU     67.95s WALL (     315 calls)
     newd         :    237.59s CPU    394.94s WALL (     315 calls)
     mix_rho      :      3.81s CPU      4.20s WALL (     292 calls)

     Called by c_bands:
     init_us_2    :    145.95s CPU    146.69s WALL (   48825 calls)
     cegterg      :   4781.32s CPU   4816.75s WALL (   21900 calls)

     Called by sum_band:
     sum_band:bec :      0.39s CPU      0.39s WALL (   21900 calls)
     addusdens    :    261.65s CPU    388.25s WALL (     292 calls)

     Called by *egterg:
     h_psi        :   4004.07s CPU   4012.68s WALL (   95785 calls)
     s_psi        :    124.59s CPU    125.16s WALL (   95785 calls)
     g_psi        :     46.10s CPU     46.28s WALL (   73810 calls)
     cdiaghg      :    130.04s CPU    152.06s WALL (   92560 calls)

     Called by h_psi:
     h_psi:pot    :   3988.25s CPU   3996.18s WALL (   95785 calls)
     h_psi:calbec :    123.59s CPU    123.88s WALL (   95785 calls)
     vloc_psi     :   3738.89s CPU   3746.35s WALL (   95785 calls)
     add_vuspsi   :    125.22s CPU    125.49s WALL (   95785 calls)

     General routines
     calbec       :    188.06s CPU    188.50s WALL (  130060 calls)
     fft          :     16.47s CPU     16.52s WALL (    4896 calls)
     ffts         :      0.65s CPU      0.67s WALL (     607 calls)
     fftw         :   4024.26s CPU   4032.45s WALL ( 3697444 calls)
     interpolate  :      1.73s CPU      1.79s WALL (     315 calls)
 
     Parallel routines
 
     PWSCF        :      1h57m CPU      2h 4m WALL

 
   This run was terminated on:   4:35:48  14May2020            

=------------------------------------------------------------------------------=
   JOB DONE.
=------------------------------------------------------------------------------=
