
     Program PWSCF v.6.4.1 starts on 13May2020 at 22:18:53 

     This program is part of the open-source Quantum ESPRESSO suite
     for quantum simulation of materials; please cite
         "P. Giannozzi et al., J. Phys.:Condens. Matter 21 395502 (2009);
         "P. Giannozzi et al., J. Phys.:Condens. Matter 29 465901 (2017);
          URL http://www.quantum-espresso.org", 
     in publications or presentations arising from this work. More details at
     http://www.quantum-espresso.org/quote

     Parallel version (MPI & OpenMP), running on       1 processor cores
     Number of MPI processes:                 1
     Threads/MPI process:                     1

     MPI processes distributed on     1 nodes
     Reading input from PTO_7.49_10_0.548.pw.in
Warning: card  &CELL ignored
Warning: card   CELL_DYNAMICS = 'BFGS', ignored
Warning: card  / ignored

     Current dimensions of program PWSCF are:
     Max number of different atomic species (ntypx) = 10
     Max number of k-points (npk) =  40000
     Max angular momentum in pseudopotentials (lmaxx) =  3
     Message from routine read_upf::
     Pseudo file Pb.pbe-dn-rrkjus_psl.0.2.2.UPF has been fixed on the fly.
To avoid this message in the future, permanently fix 
 your pseudo files following these instructions: 
https://gitlab.com/QEF/q-e/blob/master/upftools/how_to_fix_upf.md
     Message from routine read_upf::
     Pseudo file O.pbe-n-rrkjus_psl.0.1.UPF has been fixed on the fly.
To avoid this message in the future, permanently fix 
 your pseudo files following these instructions: 
https://gitlab.com/QEF/q-e/blob/master/upftools/how_to_fix_upf.md
               file Pb.pbe-dn-rrkjus_psl.0.2.2.UPF: wavefunction(s)  6S renormalized

     Subspace diagonalization in iterative solution of the eigenvalue problem:
     a serial algorithm will be used

 
     G-vector sticks info
     --------------------
     sticks:   dense  smooth     PW     G-vecs:    dense   smooth      PW
     Sum        3569    1433    421               160467    40651    6235
 


     bravais-lattice index     =            1
     lattice parameter (alat)  =       7.4900  a.u.
     unit-cell volume          =     420.1897 (a.u.)^3
     number of atoms/cell      =            5
     number of atomic types    =            3
     number of electrons       =        44.00
     number of Kohn-Sham states=           26
     kinetic-energy cutoff     =      80.0000  Ry
     charge density cutoff     =     800.0000  Ry
     convergence threshold     =      1.0E-08
     mixing beta               =       0.7000
     number of iterations used =            8  plain     mixing
     Exchange-correlation      = PBE ( 1  4  3  4 0 0)
     nstep                     =           50


     celldm(1)=   7.490000  celldm(2)=   0.000000  celldm(3)=   0.000000
     celldm(4)=   0.000000  celldm(5)=   0.000000  celldm(6)=   0.000000

     crystal axes: (cart. coord. in units of alat)
               a(1) = (   1.000000   0.000000   0.000000 )  
               a(2) = (   0.000000   1.000000   0.000000 )  
               a(3) = (   0.000000   0.000000   1.000000 )  

     reciprocal axes: (cart. coord. in units 2 pi/alat)
               b(1) = (  1.000000  0.000000  0.000000 )  
               b(2) = (  0.000000  1.000000  0.000000 )  
               b(3) = (  0.000000  0.000000  1.000000 )  


     PseudoPot. # 1 for Pb read from file:
     ./Pb.pbe-dn-rrkjus_psl.0.2.2.UPF
     MD5 check sum: 7afc420059c37d6888fc09c0f121e83f
     Pseudo is Ultrasoft + core correction, Zval = 14.0
     Generated using "atomic" code by A. Dal Corso v.5.0.2 svn rev. 9415
     Using radial grid of 1281 points,  6 beta functions with: 
                l(1) =   0
                l(2) =   0
                l(3) =   1
                l(4) =   1
                l(5) =   2
                l(6) =   2
     Q(r) pseudized with 0 coefficients 


     PseudoPot. # 2 for Ti read from file:
     ./Ti.pbe-sp-van_ak.UPF
     MD5 check sum: 8e4df49b7f0d34bbd5052bf3f5ea0213
     Pseudo is Ultrasoft, Zval = 12.0
     Generated by new atomic code, or converted to UPF format
     Using radial grid of  851 points,  6 beta functions with: 
                l(1) =   0
                l(2) =   0
                l(3) =   1
                l(4) =   1
                l(5) =   2
                l(6) =   2
     Q(r) pseudized with  8 coefficients,  rinner =    1.000   1.000   1.000
                                                       1.000   1.000

     PseudoPot. # 3 for O  read from file:
     ./O.pbe-n-rrkjus_psl.0.1.UPF
     MD5 check sum: e057bbcf3229fb5d8c36c0c92f9568b4
     Pseudo is Ultrasoft + core correction, Zval =  6.0
     Generated using "atomic" code by A. Dal Corso v.5.0.2 svn rev. 9415
     Using radial grid of 1095 points,  4 beta functions with: 
                l(1) =   0
                l(2) =   0
                l(3) =   1
                l(4) =   1
     Q(r) pseudized with 0 coefficients 


     atomic species   valence    mass     pseudopotential
        Pb            14.00   207.20000     Pb( 1.00)
        Ti            12.00    47.87000     Ti( 1.00)
        O              6.00    16.00000     O ( 1.00)

      8 Sym. Ops. (no inversion) found



   Cartesian axes

     site n.     atom                  positions (alat units)
         1           Pb  tau(   1) = (   0.0000000   0.0000000   0.0000000  )
         2           Ti  tau(   2) = (   0.5000000   0.5480000   0.5000000  )
         3           O   tau(   3) = (   0.5000000   0.5000000   0.0000000  )
         4           O   tau(   4) = (   0.5000000   0.0000000   0.5000000  )
         5           O   tau(   5) = (   0.0000000   0.5000000   0.5000000  )

     number of k points=    75  Marzari-Vanderbilt smearing, width (Ry)=  0.0250
                       cart. coord. in units 2pi/alat
        k(    1) = (   0.0500000   0.0500000   0.0500000), wk =   0.0160000
        k(    2) = (   0.0500000   0.0500000   0.1500000), wk =   0.0320000
        k(    3) = (   0.0500000   0.0500000   0.2500000), wk =   0.0320000
        k(    4) = (   0.0500000   0.0500000   0.3500000), wk =   0.0320000
        k(    5) = (   0.0500000   0.0500000   0.4500000), wk =   0.0320000
        k(    6) = (   0.0500000   0.1500000   0.1500000), wk =   0.0320000
        k(    7) = (   0.0500000   0.1500000   0.2500000), wk =   0.0320000
        k(    8) = (   0.0500000   0.1500000   0.3500000), wk =   0.0320000
        k(    9) = (   0.0500000   0.1500000   0.4500000), wk =   0.0320000
        k(   10) = (   0.0500000   0.2500000   0.2500000), wk =   0.0320000
        k(   11) = (   0.0500000   0.2500000   0.3500000), wk =   0.0320000
        k(   12) = (   0.0500000   0.2500000   0.4500000), wk =   0.0320000
        k(   13) = (   0.0500000   0.3500000   0.3500000), wk =   0.0320000
        k(   14) = (   0.0500000   0.3500000   0.4500000), wk =   0.0320000
        k(   15) = (   0.0500000   0.4500000   0.4500000), wk =   0.0320000
        k(   16) = (   0.1500000   0.1500000   0.1500000), wk =   0.0160000
        k(   17) = (   0.1500000   0.1500000   0.2500000), wk =   0.0320000
        k(   18) = (   0.1500000   0.1500000   0.3500000), wk =   0.0320000
        k(   19) = (   0.1500000   0.1500000   0.4500000), wk =   0.0320000
        k(   20) = (   0.1500000   0.2500000   0.2500000), wk =   0.0320000
        k(   21) = (   0.1500000   0.2500000   0.3500000), wk =   0.0320000
        k(   22) = (   0.1500000   0.2500000   0.4500000), wk =   0.0320000
        k(   23) = (   0.1500000   0.3500000   0.3500000), wk =   0.0320000
        k(   24) = (   0.1500000   0.3500000   0.4500000), wk =   0.0320000
        k(   25) = (   0.1500000   0.4500000   0.4500000), wk =   0.0320000
        k(   26) = (   0.2500000   0.2500000   0.2500000), wk =   0.0160000
        k(   27) = (   0.2500000   0.2500000   0.3500000), wk =   0.0320000
        k(   28) = (   0.2500000   0.2500000   0.4500000), wk =   0.0320000
        k(   29) = (   0.2500000   0.3500000   0.3500000), wk =   0.0320000
        k(   30) = (   0.2500000   0.3500000   0.4500000), wk =   0.0320000
        k(   31) = (   0.2500000   0.4500000   0.4500000), wk =   0.0320000
        k(   32) = (   0.3500000   0.3500000   0.3500000), wk =   0.0160000
        k(   33) = (   0.3500000   0.3500000   0.4500000), wk =   0.0320000
        k(   34) = (   0.3500000   0.4500000   0.4500000), wk =   0.0320000
        k(   35) = (   0.4500000   0.4500000   0.4500000), wk =   0.0160000
        k(   36) = (  -0.0500000   0.1500000   0.0500000), wk =   0.0160000
        k(   37) = (  -0.0500000   0.2500000   0.0500000), wk =   0.0160000
        k(   38) = (  -0.0500000   0.3500000   0.0500000), wk =   0.0160000
        k(   39) = (  -0.0500000   0.4500000   0.0500000), wk =   0.0160000
        k(   40) = (   0.1500000   0.0500000   0.1500000), wk =   0.0160000
        k(   41) = (  -0.0500000   0.2500000   0.1500000), wk =   0.0320000
        k(   42) = (   0.2500000   0.0500000   0.1500000), wk =   0.0320000
        k(   43) = (  -0.0500000   0.3500000   0.1500000), wk =   0.0320000
        k(   44) = (   0.3500000   0.0500000   0.1500000), wk =   0.0320000
        k(   45) = (  -0.0500000   0.4500000   0.1500000), wk =   0.0320000
        k(   46) = (   0.4500000   0.0500000   0.1500000), wk =   0.0320000
        k(   47) = (   0.2500000   0.0500000   0.2500000), wk =   0.0160000
        k(   48) = (  -0.0500000   0.3500000   0.2500000), wk =   0.0320000
        k(   49) = (   0.3500000   0.0500000   0.2500000), wk =   0.0320000
        k(   50) = (  -0.0500000   0.4500000   0.2500000), wk =   0.0320000
        k(   51) = (   0.4500000   0.0500000   0.2500000), wk =   0.0320000
        k(   52) = (   0.3500000   0.0500000   0.3500000), wk =   0.0160000
        k(   53) = (  -0.0500000   0.4500000   0.3500000), wk =   0.0320000
        k(   54) = (   0.4500000   0.0500000   0.3500000), wk =   0.0320000
        k(   55) = (   0.4500000   0.0500000   0.4500000), wk =   0.0160000
        k(   56) = (  -0.1500000   0.2500000   0.1500000), wk =   0.0160000
        k(   57) = (  -0.1500000   0.3500000   0.1500000), wk =   0.0160000
        k(   58) = (  -0.1500000   0.4500000   0.1500000), wk =   0.0160000
        k(   59) = (   0.2500000   0.1500000   0.2500000), wk =   0.0160000
        k(   60) = (  -0.1500000   0.3500000   0.2500000), wk =   0.0320000
        k(   61) = (   0.3500000   0.1500000   0.2500000), wk =   0.0320000
        k(   62) = (  -0.1500000   0.4500000   0.2500000), wk =   0.0320000
        k(   63) = (   0.4500000   0.1500000   0.2500000), wk =   0.0320000
        k(   64) = (   0.3500000   0.1500000   0.3500000), wk =   0.0160000
        k(   65) = (  -0.1500000   0.4500000   0.3500000), wk =   0.0320000
        k(   66) = (   0.4500000   0.1500000   0.3500000), wk =   0.0320000
        k(   67) = (   0.4500000   0.1500000   0.4500000), wk =   0.0160000
        k(   68) = (  -0.2500000   0.3500000   0.2500000), wk =   0.0160000
        k(   69) = (  -0.2500000   0.4500000   0.2500000), wk =   0.0160000
        k(   70) = (   0.3500000   0.2500000   0.3500000), wk =   0.0160000
        k(   71) = (  -0.2500000   0.4500000   0.3500000), wk =   0.0320000
        k(   72) = (   0.4500000   0.2500000   0.3500000), wk =   0.0320000
        k(   73) = (   0.4500000   0.2500000   0.4500000), wk =   0.0160000
        k(   74) = (  -0.3500000   0.4500000   0.3500000), wk =   0.0160000
        k(   75) = (   0.4500000   0.3500000   0.4500000), wk =   0.0160000

     Dense  grid:   160467 G-vectors     FFT dimensions: (  72,  72,  72)

     Smooth grid:    40651 G-vectors     FFT dimensions: (  45,  45,  45)

     Estimated max dynamical RAM per process >     759.22 MB

     Check: negative core charge=   -0.000006

     Initial potential from superposition of free atoms

     starting charge   42.99760, renormalised to   44.00000
     Starting wfcs are   31 randomized atomic wfcs

     total cpu time spent up to now is       11.2 secs

     Self-consistent Calculation

     iteration #  1     ecut=    80.00 Ry     beta= 0.70
     Davidson diagonalization with overlap
     ethr =  1.00E-02,  avg # of iterations =  2.0

     total cpu time spent up to now is       31.1 secs

     total energy              =    -364.40312396 Ry
     Harris-Foulkes estimate   =    -365.28714836 Ry
     estimated scf accuracy    <       1.10995222 Ry

     iteration #  2     ecut=    80.00 Ry     beta= 0.70
     Davidson diagonalization with overlap
     ethr =  2.52E-03,  avg # of iterations =  4.1

     total cpu time spent up to now is       58.3 secs

     total energy              =    -363.39004070 Ry
     Harris-Foulkes estimate   =    -365.74735324 Ry
     estimated scf accuracy    <       8.59917127 Ry

     iteration #  3     ecut=    80.00 Ry     beta= 0.70
     Davidson diagonalization with overlap
     ethr =  2.52E-03,  avg # of iterations =  4.9

     total cpu time spent up to now is       86.1 secs

     total energy              =    -364.92978273 Ry
     Harris-Foulkes estimate   =    -365.09710981 Ry
     estimated scf accuracy    <       0.45492530 Ry

     iteration #  4     ecut=    80.00 Ry     beta= 0.70
     Davidson diagonalization with overlap
     ethr =  1.03E-03,  avg # of iterations =  3.0

     total cpu time spent up to now is      105.8 secs

     total energy              =    -364.91602111 Ry
     Harris-Foulkes estimate   =    -364.96342631 Ry
     estimated scf accuracy    <       0.16092176 Ry

     iteration #  5     ecut=    80.00 Ry     beta= 0.70
     Davidson diagonalization with overlap
     ethr =  3.66E-04,  avg # of iterations =  4.4

     total cpu time spent up to now is      129.9 secs

     total energy              =    -364.95368961 Ry
     Harris-Foulkes estimate   =    -364.95386806 Ry
     estimated scf accuracy    <       0.00130200 Ry

     iteration #  6     ecut=    80.00 Ry     beta= 0.70
     Davidson diagonalization with overlap
     c_bands:  1 eigenvalues not converged
     ethr =  2.96E-06,  avg # of iterations =  4.8

     total cpu time spent up to now is      158.5 secs

     total energy              =    -364.95400491 Ry
     Harris-Foulkes estimate   =    -364.95443892 Ry
     estimated scf accuracy    <       0.00197645 Ry

     iteration #  7     ecut=    80.00 Ry     beta= 0.70
     Davidson diagonalization with overlap
     ethr =  2.96E-06,  avg # of iterations =  2.6

     total cpu time spent up to now is      178.6 secs

     total energy              =    -364.95394727 Ry
     Harris-Foulkes estimate   =    -364.95419883 Ry
     estimated scf accuracy    <       0.00066358 Ry

     iteration #  8     ecut=    80.00 Ry     beta= 0.70
     Davidson diagonalization with overlap
     ethr =  1.51E-06,  avg # of iterations =  3.5

     total cpu time spent up to now is      200.2 secs

     total energy              =    -364.95408183 Ry
     Harris-Foulkes estimate   =    -364.95409081 Ry
     estimated scf accuracy    <       0.00003708 Ry

     iteration #  9     ecut=    80.00 Ry     beta= 0.70
     Davidson diagonalization with overlap
     ethr =  8.43E-08,  avg # of iterations =  2.8

     total cpu time spent up to now is      222.4 secs

     total energy              =    -364.95407905 Ry
     Harris-Foulkes estimate   =    -364.95408957 Ry
     estimated scf accuracy    <       0.00002848 Ry

     iteration # 10     ecut=    80.00 Ry     beta= 0.70
     Davidson diagonalization with overlap
     ethr =  6.47E-08,  avg # of iterations =  2.5

     total cpu time spent up to now is      242.3 secs

     total energy              =    -364.95408227 Ry
     Harris-Foulkes estimate   =    -364.95408265 Ry
     estimated scf accuracy    <       0.00000114 Ry

     iteration # 11     ecut=    80.00 Ry     beta= 0.70
     Davidson diagonalization with overlap
     ethr =  2.58E-09,  avg # of iterations =  3.9

     total cpu time spent up to now is      268.4 secs

     total energy              =    -364.95408301 Ry
     Harris-Foulkes estimate   =    -364.95408304 Ry
     estimated scf accuracy    <       0.00000014 Ry

     iteration # 12     ecut=    80.00 Ry     beta= 0.70
     Davidson diagonalization with overlap
     ethr =  3.22E-10,  avg # of iterations =  1.7

     total cpu time spent up to now is      287.2 secs

     total energy              =    -364.95408300 Ry
     Harris-Foulkes estimate   =    -364.95408302 Ry
     estimated scf accuracy    <       0.00000004 Ry

     iteration # 13     ecut=    80.00 Ry     beta= 0.70
     Davidson diagonalization with overlap
     ethr =  8.43E-11,  avg # of iterations =  3.0

     total cpu time spent up to now is      308.7 secs

     End of self-consistent calculation

          k = 0.0500 0.0500 0.0500 (  5047 PWs)   bands (ev):

   -46.0589 -22.4077 -22.3022 -22.3022  -7.2253  -6.2434  -6.1243  -5.0650
    -5.0467  -5.0464  -4.9096  -4.8932   4.4544   6.8139   6.8615   7.0040
     8.7393   8.7650   9.1639   9.2510   9.5129   9.5334  12.5159  13.0008
    13.0100  14.7228

          k = 0.0500 0.0500 0.1500 (  5074 PWs)   bands (ev):

   -46.0586 -22.4073 -22.3128 -22.3018  -7.1449  -6.2088  -6.0946  -5.0727
    -5.0545  -5.0461  -4.9398  -4.8923   4.1585   6.8696   6.9455   7.1791
     8.5339   8.7136   9.1000   9.1704   9.3769   9.5082  12.8326  13.0103
    13.0921  14.9274

          k = 0.0500 0.0500 0.2500 (  5093 PWs)   bands (ev):

   -46.0583 -22.4066 -22.3300 -22.3012  -7.0108  -6.1477  -6.0476  -5.0854
    -5.0674  -5.0452  -4.9962  -4.8877   3.7900   6.8821   7.0516   7.2017
     8.4248   8.5215   9.0109   9.0946   9.2982   9.5734  13.0108  13.2941
    13.4100  14.9298

          k = 0.0500 0.0500 0.3500 (  5090 PWs)   bands (ev):

   -46.0580 -22.4059 -22.3471 -22.3006  -6.8713  -6.0762  -6.0044  -5.1038
    -5.0825  -5.0509  -5.0443  -4.8848   3.5012   6.5389   7.2322   7.3642
     8.1660   8.2833   8.9447   9.0169   9.3949   9.9453  13.0114  13.7113
    13.8054  14.2565

          k = 0.0500 0.0500 0.4500 (  5073 PWs)   bands (ev):

   -46.0577 -22.4055 -22.3576 -22.3002  -6.7818  -6.0186  -5.9867  -5.1307
    -5.0937  -5.0713  -5.0439  -4.8842   3.3508   6.2622   7.4206   7.6149
     7.8870   7.9890   8.9225   8.9996   9.4476  10.3851  12.9951  13.5454
    13.9580  14.0790

          k = 0.0500 0.1500 0.1500 (  5079 PWs)   bands (ev):

   -46.0584 -22.4182 -22.3124 -22.3014  -7.0512  -6.1879  -6.0669  -5.0728
    -5.0653  -5.0530  -4.9312  -4.9134   3.9362   6.8253   6.9282   7.3493
     8.3129   8.5397   8.9443   9.2243   9.3367   9.6013  12.8328  13.2567
    13.3197  15.0304

          k = 0.0500 0.1500 0.2500 (  5077 PWs)   bands (ev):

   -46.0581 -22.4175 -22.3295 -22.3008  -6.9215  -6.1347  -6.0270  -5.0890
    -5.0752  -5.0524  -4.9626  -4.9040   3.6416   6.7842   7.0482   7.2852
     8.1713   8.3819   8.8230   9.0807   9.2711   9.7570  13.2362  13.3126
    13.5810  15.0686

          k = 0.0500 0.1500 0.3500 (  5080 PWs)   bands (ev):

   -46.0577 -22.4168 -22.3465 -22.3001  -6.7887  -6.0800  -5.9833  -5.1080
    -5.0847  -5.0520  -4.9895  -4.9006   3.3946   6.5214   7.1599   7.3350
     7.9352   8.2294   8.7690   9.0617   9.2518  10.0002  13.2497  13.7050
    13.9240  14.4226

          k = 0.0500 0.1500 0.4500 (  5079 PWs)   bands (ev):

   -46.0575 -22.4163 -22.3570 -22.2998  -6.7051  -6.0456  -5.9533  -5.1229
    -5.0933  -5.0517  -4.9981  -4.9031   3.2612   6.2651   7.2733   7.4982
     7.7621   7.9776   8.7964   9.1279   9.2219  10.1964  13.2295  13.9256
    13.9590  14.1687

          k = 0.0500 0.2500 0.2500 (  5076 PWs)   bands (ev):

   -46.0577 -22.4350 -22.3288 -22.3001  -6.7754  -6.1171  -5.9841  -5.0933
    -5.0796  -5.0601  -4.9385  -4.9170   3.4165   6.6459   7.0579   7.1908
     7.9568   8.1102   8.5916   9.0690   9.4465   9.9070  13.2743  13.6447
    13.8537  15.0087

          k = 0.0500 0.2500 0.3500 (  5080 PWs)   bands (ev):

   -46.0574 -22.4342 -22.3457 -22.2995  -6.6631  -6.0828  -5.9304  -5.1032
    -5.0837  -5.0614  -4.9487  -4.8954   3.2254   6.4772   6.9456   7.2602
     7.7420   8.0848   8.5015   8.8801   9.5542   9.9150  13.6072  13.7076
    14.1087  14.7191

          k = 0.0500 0.2500 0.4500 (  5084 PWs)   bands (ev):

   -46.0572 -22.4337 -22.3562 -22.2991  -6.5984  -6.0608  -5.8883  -5.1094
    -5.0917  -5.0626  -4.9416  -4.8917   3.1171   6.2597   6.9673   7.2651
     7.6420   8.0907   8.4451   8.8659   9.5749   9.8799  13.6162  13.9255
    14.3038  14.5311

          k = 0.0500 0.3500 0.3500 (  5079 PWs)   bands (ev):

   -46.0571 -22.4515 -22.3449 -22.2988  -6.5602  -6.0520  -5.8705  -5.1020
    -5.0865  -5.0643  -4.9714  -4.8368   3.0619   6.2858   6.6935   7.2466
     7.6594   7.9443   8.3818   8.8315   9.5427   9.9462  13.6603  14.0094
    14.2990  15.0372

          k = 0.0500 0.3500 0.4500 (  5079 PWs)   bands (ev):

   -46.0568 -22.4510 -22.3553 -22.2984  -6.5302  -6.0198  -5.8162  -5.1031
    -5.0904  -5.0673  -4.9793  -4.8023   2.9750   6.1793   6.5490   7.3213
     7.4723   8.1223   8.2946   8.7055   9.3526  10.0120  13.8951  14.0045
    14.4625  15.0904

          k = 0.0500 0.4500 0.4500 (  5100 PWs)   bands (ev):

   -46.0566 -22.4617 -22.3548 -22.2980  -6.5117  -5.9622  -5.7671  -5.1057
    -5.0898  -5.0677  -5.0035  -4.7507   2.8885   5.9881   6.4383   7.2962
     7.4599   8.0554   8.3487   8.6406   9.0374  10.1880  13.8774  14.2393
    14.5716  15.4583

          k = 0.1500 0.1500 0.1500 (  5095 PWs)   bands (ev):

   -46.0582 -22.4177 -22.3121 -22.3119  -6.9761  -6.1626  -6.0438  -5.0811
    -5.0708  -5.0527  -4.9285  -4.9140   3.7882   6.7938   6.8506   7.4577
     8.1667   8.3208   8.9033   9.2895   9.4384   9.4785  13.0569  13.2990
    13.3363  15.5146

          k = 0.1500 0.1500 0.2500 (  5084 PWs)   bands (ev):

   -46.0579 -22.4171 -22.3291 -22.3113  -6.8548  -6.1195  -6.0046  -5.0952
    -5.0723  -5.0492  -4.9451  -4.9042   3.5634   6.7405   6.8417   7.3078
     7.9553   8.1359   8.9392   9.2112   9.3794   9.6670  13.2608  13.4337
    13.5761  15.1386

          k = 0.1500 0.1500 0.3500 (  5082 PWs)   bands (ev):

   -46.0575 -22.4164 -22.3461 -22.3107  -6.7349  -6.0732  -5.9614  -5.1077
    -5.0651  -5.0434  -4.9684  -4.9006   3.3590   6.5199   6.8460   7.1875
     7.7597   8.1820   8.7131   9.2452   9.3894   9.8750  13.2052  13.7553
    13.9140  14.6327

          k = 0.1500 0.1500 0.4500 (  5084 PWs)   bands (ev):

   -46.0573 -22.4159 -22.3565 -22.3103  -6.6626  -6.0432  -5.9313  -5.1126
    -5.0593  -5.0368  -4.9844  -4.9043   3.2436   6.2710   6.8438   7.2305
     7.6687   8.2945   8.4665   9.3193   9.3726   9.9802  13.1391  13.9706
    14.1511  14.3899

          k = 0.1500 0.2500 0.2500 (  5081 PWs)   bands (ev):

   -46.0575 -22.4345 -22.3283 -22.3106  -6.7063  -6.1076  -5.9865  -5.0974
    -5.0819  -5.0358  -4.9198  -4.8993   3.4099   6.5864   6.7074   7.1350
     7.6761   7.9624   8.8581   9.2656   9.4921   9.7588  13.3093  13.6292
    13.8072  14.9466

          k = 0.1500 0.2500 0.3500 (  5080 PWs)   bands (ev):

   -46.0572 -22.4338 -22.3453 -22.3100  -6.5997  -6.0899  -5.9392  -5.1002
    -5.0710  -5.0262  -4.9222  -4.8797   3.2698   6.4490   6.6678   6.9005
     7.3785   8.0105   8.9101   9.0790   9.5578   9.7584  13.4437  13.7371
    14.0492  14.9040

          k = 0.1500 0.2500 0.4500 (  5077 PWs)   bands (ev):

   -46.0570 -22.4333 -22.3557 -22.3096  -6.5395  -6.0826  -5.8980  -5.0989
    -5.0611  -5.0239  -4.9154  -4.8782   3.1846   6.2584   6.6360   6.8250
     7.2884   8.1081   8.7308   9.1619   9.4942   9.7362  13.4569  13.9131
    14.2475  14.9324

          k = 0.1500 0.3500 0.3500 (  5081 PWs)   bands (ev):

   -46.0568 -22.4511 -22.3445 -22.3093  -6.4841  -6.0784  -5.9146  -5.0970
    -5.0643  -5.0051  -4.9295  -4.8213   3.1663   6.2483   6.5788   6.6667
     7.0922   7.9808   8.7625   9.1133   9.4007   9.8974  13.5726  13.9179
    14.2156  15.2095

          k = 0.1500 0.3500 0.4500 (  5079 PWs)   bands (ev):

   -46.0566 -22.4506 -22.3549 -22.3089  -6.4534  -6.0688  -5.8649  -5.0927
    -5.0451  -5.0098  -4.9313  -4.7869   3.1093   6.1628   6.4722   6.6341
     6.8893   8.0527   8.7179   9.0131   9.1904  10.0003  13.8103  13.9124
    14.3665  15.4288

          k = 0.1500 0.4500 0.4500 (  5073 PWs)   bands (ev):

   -46.0564 -22.4612 -22.3543 -22.3084  -6.4299  -6.0233  -5.8452  -5.0901
    -5.0262  -4.9927  -4.9556  -4.7340   3.0557   5.9674   6.3935   6.6229
     6.7573   8.0545   8.4640   8.9184   9.1379  10.1684  13.8640  14.1149
    14.4653  15.7658

          k = 0.2500 0.2500 0.2500 (  5070 PWs)   bands (ev):

   -46.0572 -22.4338 -22.3278 -22.3275  -6.6032  -6.0898  -5.9816  -5.0866
    -5.0822  -5.0050  -4.8969  -4.8729   3.3808   6.4019   6.4901   6.9794
     7.4557   7.5396   9.0375   9.5033   9.5139   9.6514  13.3109  13.7745
    13.7829  14.9770

          k = 0.2500 0.2500 0.3500 (  5072 PWs)   bands (ev):

   -46.0568 -22.4331 -22.3445 -22.3269  -6.5171  -6.0768  -5.9516  -5.0809
    -5.0658  -4.9690  -4.8796  -4.8545   3.3300   6.2701   6.3454   6.6588
     7.1832   7.5049   8.9092   9.4351   9.5463   9.7949  13.3872  13.8271
    14.0341  15.1777

          k = 0.2500 0.2500 0.4500 (  5073 PWs)   bands (ev):

   -46.0566 -22.4326 -22.3549 -22.3265  -6.4749  -6.0750  -5.9141  -5.0765
    -5.0538  -4.9344  -4.8745  -4.8510   3.2896   6.1763   6.2580   6.4410
     7.1164   7.5462   8.6857   9.4604   9.5019   9.8533  13.5006  13.9082
    14.2296  15.4209

          k = 0.2500 0.3500 0.3500 (  5057 PWs)   bands (ev):

   -46.0565 -22.4504 -22.3438 -22.3262  -6.3751  -6.1019  -5.9745  -5.0736
    -5.0470  -4.9287  -4.8539  -4.7917   3.3472   6.0223   6.1790   6.4397
     6.8705   7.3891   8.4530   9.5115   9.7106   9.8902  13.5395  13.9672
    14.1657  15.5111

          k = 0.2500 0.3500 0.4500 (  5063 PWs)   bands (ev):

   -46.0563 -22.4499 -22.3541 -22.3258  -6.3454  -6.1172  -5.9320  -5.0668
    -5.0304  -4.9031  -4.8421  -4.7578   3.3583   6.0140   6.0554   6.2452
     6.6829   7.4162   8.0984   9.5292   9.6998  10.0032  13.7861  13.9509
    14.3106  15.8486

          k = 0.2500 0.4500 0.4500 (  5070 PWs)   bands (ev):

   -46.0561 -22.4605 -22.3536 -22.3253  -6.2981  -6.1042  -5.9435  -5.0625
    -5.0122  -4.8824  -4.8243  -4.7025   3.3854   5.8275   6.0708   6.1204
     6.4957   7.3899   7.6382   9.5248   9.7454  10.1501  13.9250  14.0897
    14.4006  16.1840

          k = 0.3500 0.3500 0.3500 (  5055 PWs)   bands (ev):

   -46.0562 -22.4496 -22.3431 -22.3430  -6.3116  -6.0879  -6.0116  -5.0492
    -5.0352  -4.8556  -4.7845  -4.7549   3.5409   5.7617   5.8686   6.2978
     6.8205   6.8837   7.8193   9.7854   9.8840  10.0284  13.7069  14.1398
    14.1419  15.8801

          k = 0.3500 0.3500 0.4500 (  5056 PWs)   bands (ev):

   -46.0559 -22.4491 -22.3534 -22.3426  -6.3035  -6.0879  -5.9895  -5.0389
    -5.0242  -4.8047  -4.7560  -4.7235   3.6627   5.6637   5.7202   6.1335
     6.6493   6.8653   7.3340   9.8412   9.9579  10.1444  13.9401  14.0943
    14.3008  16.2575

          k = 0.3500 0.4500 0.4500 (  5051 PWs)   bands (ev):

   -46.0557 -22.4598 -22.3529 -22.3422  -6.1977  -6.1407  -6.0227  -5.0354
    -5.0081  -4.7769  -4.7077  -4.6642   3.8559   5.4983   5.6567   5.9753
     6.4622   6.7065   6.8374   9.9362  10.1232  10.1482  14.0993  14.2100
    14.3714  16.6196

          k = 0.4500 0.4500 0.4500 (  5034 PWs)   bands (ev):

   -46.0555 -22.4593 -22.3525 -22.3525  -6.2219  -6.0766  -6.0621  -5.0202
    -5.0044  -4.7144  -4.6421  -4.6360   4.3528   5.3199   5.4044   5.8863
     5.9478   6.4457   6.5706  10.1199  10.1331  10.3064  14.2745  14.3474
    14.3506  16.9738

          k =-0.0500 0.1500 0.0500 (  5074 PWs)   bands (ev):

   -46.0586 -22.4186 -22.3018 -22.3018  -7.1297  -6.2199  -6.0903  -5.0645
    -5.0558  -5.0532  -4.9289  -4.9054   4.1507   6.8609   6.8615   7.1900
     8.5575   8.5810   9.1041   9.1506   9.5404   9.5616  12.5177  13.2461
    13.2642  14.7251

          k =-0.0500 0.2500 0.0500 (  5093 PWs)   bands (ev):

   -46.0583 -22.4362 -22.3011 -22.3011  -6.9663  -6.1860  -6.0300  -5.0727
    -5.0640  -5.0626  -4.9896  -4.9004   3.7671   6.8286   6.9416   7.1169
     8.3133   8.3327   9.1004   9.2196   9.6111   9.6756  12.5204  13.6266
    13.6529  14.7295

          k =-0.0500 0.3500 0.0500 (  5090 PWs)   bands (ev):

   -46.0580 -22.4537 -22.3005 -22.3005  -6.7873  -6.1613  -5.9608  -5.1028
    -5.0716  -5.0626  -5.0460  -4.8977   3.4618   6.4539   7.0279   7.1626
     8.0980   8.0984   9.0391   9.4557   9.6647  10.0535  12.5221  13.9933
    14.0251  14.3454

          k =-0.0500 0.4500 0.0500 (  5073 PWs)   bands (ev):

   -46.0577 -22.4645 -22.3001 -22.3001  -6.6641  -6.1554  -5.9115  -5.1408
    -5.0763  -5.0679  -5.0621  -4.8974   3.3006   6.1485   7.0865   7.2525
     7.9390   7.9721   8.9993   9.5471   9.7000  10.5094  12.5202  13.6042
    14.2141  14.2539

          k = 0.1500 0.0500 0.1500 (  5079 PWs)   bands (ev):

   -46.0584 -22.4069 -22.3126 -22.3123  -7.0690  -6.1803  -6.0634  -5.0803
    -5.0549  -5.0525  -4.9407  -4.9062   3.9464   6.8204   7.0118   7.3272
     8.3489   8.4957   8.9729   9.2055   9.4007   9.5246  13.0327  13.1030
    13.1271  15.2737

          k =-0.0500 0.2500 0.1500 (  5077 PWs)   bands (ev):

   -46.0581 -22.4357 -22.3117 -22.3007  -6.8926  -6.1574  -6.0178  -5.0853
    -5.0714  -5.0608  -4.9555  -4.9153   3.6270   6.7232   6.9765   7.2693
     8.0609   8.3161   8.8491   9.2571   9.3963   9.8070  12.8311  13.6308
    13.6792  15.0503

          k = 0.2500 0.0500 0.1500 (  5077 PWs)   bands (ev):

   -46.0581 -22.4062 -22.3295 -22.3118  -6.9452  -6.1278  -6.0135  -5.0910
    -5.0642  -5.0525  -4.9712  -4.9062   3.6528   6.8074   7.0603   7.2865
     8.1491   8.2524   8.9045   9.1919   9.3958   9.6443  13.0777  13.3889
    13.4798  15.2871

          k =-0.0500 0.3500 0.1500 (  5080 PWs)   bands (ev):

   -46.0577 -22.4532 -22.3110 -22.3001  -6.7230  -6.1325  -5.9629  -5.1105
    -5.0711  -5.0667  -4.9860  -4.9123   3.3637   6.4083   6.9797   7.2632
     7.8631   8.1188   8.9370   9.2466   9.4599  10.1077  12.8231  13.9848
    14.0306  14.5270

          k = 0.3500 0.0500 0.1500 (  5080 PWs)   bands (ev):

   -46.0577 -22.4055 -22.3466 -22.3111  -6.8216  -6.0612  -5.9677  -5.1062
    -5.0697  -5.0520  -5.0097  -4.9031   3.4053   6.5408   7.0871   7.3880
     7.8964   8.2408   8.6178   9.2402   9.4219   9.9524  13.0568  13.7688
    13.8524  14.4765

          k =-0.0500 0.4500 0.1500 (  5079 PWs)   bands (ev):

   -46.0575 -22.4639 -22.3106 -22.2997  -6.6100  -6.1214  -5.9256  -5.1328
    -5.0731  -5.0696  -4.9962  -4.9150   3.2196   6.1235   6.9813   7.3545
     7.7385   7.9851   9.0366   9.2245   9.5000  10.3412  12.8092  13.9919
    14.2231  14.2733

          k = 0.4500 0.0500 0.1500 (  5079 PWs)   bands (ev):

   -46.0575 -22.4051 -22.3571 -22.3107  -6.7460  -6.0036  -5.9489  -5.1216
    -5.0733  -5.0517  -5.0280  -4.9041   3.2712   6.2706   7.1907   7.4753
     7.8387   8.0581   8.5239   9.2283   9.4589  10.2233  13.0117  13.9760
    14.0184  14.1035

          k = 0.2500 0.0500 0.2500 (  5076 PWs)   bands (ev):

   -46.0577 -22.4055 -22.3290 -22.3286  -6.8454  -6.0826  -5.9579  -5.0906
    -5.0664  -5.0582  -4.9443  -4.9336   3.4437   6.7620   7.0004   7.2788
     7.8315   7.9630   8.9469   9.0322   9.6010   9.7001  13.3116  13.4463
    13.7410  15.1059

          k =-0.0500 0.3500 0.2500 (  5080 PWs)   bands (ev):

   -46.0574 -22.4524 -22.3280 -22.2994  -6.6307  -6.0925  -5.9351  -5.1046
    -5.0814  -5.0647  -4.9510  -4.8974   3.2093   6.3505   6.9666   7.1708
     7.7751   8.0309   8.4821   9.1153   9.5086  10.0174  13.2608  14.0109
    14.1156  14.8101

          k = 0.3500 0.0500 0.2500 (  5080 PWs)   bands (ev):

   -46.0574 -22.4049 -22.3458 -22.3281  -6.7568  -6.0129  -5.9051  -5.0957
    -5.0686  -5.0596  -4.9567  -4.9256   3.2513   6.5460   6.8973   7.2670
     7.6681   7.9521   8.6218   9.1184   9.6176   9.8873  13.3349  13.7750
    14.0170  14.7779

          k =-0.0500 0.4500 0.2500 (  5084 PWs)   bands (ev):

   -46.0572 -22.4631 -22.3275 -22.2990  -6.5460  -6.0655  -5.9048  -5.1177
    -5.0809  -5.0709  -4.9496  -4.8902   3.0902   6.0816   6.9443   7.1580
     7.7201   7.9724   8.4990   9.1586   9.4818  10.0672  13.2490  14.2339
    14.2678  14.6972

          k = 0.4500 0.0500 0.2500 (  5084 PWs)   bands (ev):

   -46.0572 -22.4045 -22.3562 -22.3276  -6.7096  -5.9463  -5.8821  -5.1047
    -5.0710  -5.0629  -4.9489  -4.9303   3.1410   6.2774   6.9830   7.1339
     7.7119   8.0718   8.3073   9.2020   9.5497  10.0161  13.3121  14.0290
    14.2054  14.5712

          k = 0.3500 0.0500 0.3500 (  5079 PWs)   bands (ev):

   -46.0571 -22.4042 -22.3451 -22.3448  -6.7136  -5.9290  -5.8409  -5.0900
    -5.0735  -5.0581  -4.9738  -4.8856   3.1007   6.4774   6.6340   7.2174
     7.3896   7.9847   8.6377   8.8638   9.5760  10.0145  13.6679  13.8147
    14.2043  15.0317

          k =-0.0500 0.4500 0.3500 (  5079 PWs)   bands (ev):

   -46.0568 -22.4622 -22.3444 -22.2984  -6.5156  -6.0045  -5.8326  -5.1077
    -5.0874  -5.0687  -4.9832  -4.8011   2.9641   6.0355   6.6565   7.1785
     7.6705   7.9249   8.3248   8.8489   9.3362  10.0660  13.6506  14.2406
    14.4347  15.2417

          k = 0.4500 0.0500 0.3500 (  5079 PWs)   bands (ev):

   -46.0568 -22.4038 -22.3554 -22.3445  -6.6970  -5.8509  -5.8082  -5.0928
    -5.0719  -5.0654  -4.9851  -4.8562   3.0104   6.2385   6.6468   7.0910
     7.3591   8.1540   8.4044   8.8737   9.3965  10.1628  13.7221  14.0246
    14.3389  15.1184

          k = 0.4500 0.0500 0.4500 (  5100 PWs)   bands (ev):

   -46.0566 -22.4033 -22.3549 -22.3549  -6.6982  -5.7735  -5.7602  -5.0916
    -5.0698  -5.0652  -5.0136  -4.8102   2.9299   6.1180   6.5283   7.1214
     7.1408   8.3036   8.4673   8.6218   9.1581  10.3348  14.0030  14.0307
    14.4242  15.4000

          k =-0.1500 0.2500 0.1500 (  5084 PWs)   bands (ev):

   -46.0579 -22.4353 -22.3114 -22.3112  -6.8202  -6.1358  -6.0109  -5.0937
    -5.0798  -5.0476  -4.9308  -4.9160   3.5471   6.7186   6.7365   7.3197
     7.9752   8.1394   8.7496   9.3441   9.4945   9.6958  13.0276  13.6277
    13.6835  15.1637

          k =-0.1500 0.3500 0.1500 (  5082 PWs)   bands (ev):

   -46.0575 -22.4527 -22.3107 -22.3105  -6.6555  -6.1126  -5.9764  -5.1132
    -5.0765  -5.0344  -4.9526  -4.9129   3.3259   6.4105   6.6627   7.2240
     7.8548   8.1130   8.6091   9.3583   9.5434   9.9633  12.9654  13.9695
    13.9997  14.6846

          k =-0.1500 0.4500 0.1500 (  5084 PWs)   bands (ev):

   -46.0573 -22.4634 -22.3102 -22.3101  -6.5479  -6.1010  -5.9542  -5.1234
    -5.0742  -5.0189  -4.9688  -4.9183   3.1997   6.1266   6.6100   7.2712
     7.8041   8.0752   8.5778   9.3547   9.5732  10.0942  12.9093  14.1881
    14.1956  14.4723

          k = 0.2500 0.1500 0.2500 (  5081 PWs)   bands (ev):

   -46.0575 -22.4164 -22.3286 -22.3282  -6.7537  -6.0858  -5.9669  -5.0928
    -5.0781  -5.0347  -4.9247  -4.9065   3.4277   6.6347   6.7484   7.1257
     7.6094   7.9360   9.0406   9.2429   9.5514   9.6180  13.3651  13.5534
    13.7147  14.9557

          k =-0.1500 0.3500 0.2500 (  5080 PWs)   bands (ev):

   -46.0572 -22.4519 -22.3276 -22.3099  -6.5582  -6.0907  -5.9669  -5.1042
    -5.0778  -5.0145  -4.9228  -4.8823   3.2522   6.3377   6.5662   6.9336
     7.5540   7.9701   8.6400   9.3626   9.5536   9.8130  13.2442  13.9382
    14.0565  14.9376

          k = 0.3500 0.1500 0.2500 (  5080 PWs)   bands (ev):

   -46.0572 -22.4157 -22.3453 -22.3276  -6.6655  -6.0381  -5.9256  -5.0945
    -5.0704  -5.0145  -4.9239  -4.9036   3.2873   6.4935   6.6484   6.8661
     7.4276   7.9303   8.9044   9.2484   9.5086   9.7988  13.3408  13.7747
    13.9848  14.9114

          k =-0.1500 0.4500 0.2500 (  5077 PWs)   bands (ev):

   -46.0570 -22.4626 -22.3271 -22.3095  -6.4708  -6.0708  -5.9568  -5.1071
    -5.0734  -4.9949  -4.9308  -4.8750   3.1553   6.0888   6.4500   6.9253
     7.5413   8.0437   8.4693   9.4141   9.5187   9.8217  13.2226  14.1582
    14.2419  15.0181

          k = 0.4500 0.1500 0.2500 (  5077 PWs)   bands (ev):

   -46.0570 -22.4152 -22.3557 -22.3272  -6.6195  -6.0017  -5.8958  -5.0941
    -5.0634  -4.9964  -4.9242  -4.9095   3.2011   6.2728   6.5747   6.8249
     7.3938   7.9880   8.7293   9.3058   9.4166   9.8753  13.3235  13.9685
    14.1920  14.9417

          k = 0.3500 0.1500 0.3500 (  5081 PWs)   bands (ev):

   -46.0568 -22.4150 -22.3447 -22.3444  -6.6216  -5.9711  -5.8882  -5.0849
    -5.0632  -4.9918  -4.9200  -4.8698   3.2008   6.4456   6.4753   6.6420
     7.0512   7.9107   8.9364   9.1299   9.3123  10.0172  13.5672  13.8283
    14.1429  15.1943

          k =-0.1500 0.4500 0.3500 (  5079 PWs)   bands (ev):

   -46.0566 -22.4617 -22.3440 -22.3089  -6.4338  -6.0422  -5.9023  -5.0958
    -5.0556  -4.9816  -4.9491  -4.7851   3.0972   6.0172   6.5042   6.5867
     7.0672   8.0068   8.5716   9.1020   9.2750  10.0150  13.6060  14.1293
    14.3539  15.5006

          k = 0.4500 0.1500 0.3500 (  5079 PWs)   bands (ev):

   -46.0566 -22.4146 -22.3549 -22.3441  -6.6064  -5.9183  -5.8610  -5.0812
    -5.0511  -4.9772  -4.9307  -4.8418   3.1419   6.2293   6.4790   6.5385
     6.9377   7.9473   8.7820   9.0977   9.1890  10.1522  13.6746  13.9615
    14.2888  15.4342

          k = 0.4500 0.1500 0.4500 (  5073 PWs)   bands (ev):

   -46.0564 -22.4141 -22.3545 -22.3544  -6.6095  -5.8514  -5.8393  -5.0761
    -5.0298  -4.9640  -4.9512  -4.7958   3.0975   6.1073   6.4509   6.5264
     6.6409   7.9698   8.5804   9.0605   9.0697  10.3293  13.9351  13.9814
    14.3786  15.7414

          k =-0.2500 0.3500 0.2500 (  5072 PWs)   bands (ev):

   -46.0568 -22.4511 -22.3270 -22.3268  -6.4530  -6.0884  -5.9966  -5.0880
    -5.0672  -4.9664  -4.8798  -4.8460   3.3096   6.1695   6.3321   6.6461
     7.3929   7.4172   8.7783   9.5228   9.6368   9.7178  13.3149  13.9313
    14.0509  15.1885

          k =-0.2500 0.4500 0.2500 (  5073 PWs)   bands (ev):

   -46.0566 -22.4618 -22.3265 -22.3263  -6.3649  -6.0802  -6.0059  -5.0865
    -5.0579  -4.9240  -4.8866  -4.8317   3.2556   6.0328   6.1121   6.5757
     7.3730   7.4385   8.5485   9.4743   9.6655   9.7709  13.3735  14.0851
    14.2479  15.4690

          k = 0.3500 0.2500 0.3500 (  5057 PWs)   bands (ev):

   -46.0565 -22.4324 -22.3439 -22.3437  -6.4693  -6.0319  -5.9543  -5.0613
    -5.0548  -4.9141  -4.8346  -4.8346   3.3699   6.1069   6.1071   6.4589
     6.9142   7.2978   8.4914   9.5491   9.5934  10.0223  13.5399  13.9359
    14.1291  15.5038

          k =-0.2500 0.4500 0.3500 (  5063 PWs)   bands (ev):

   -46.0563 -22.4610 -22.3433 -22.3258  -6.3045  -6.0946  -5.9899  -5.0701
    -5.0328  -4.8959  -4.8468  -4.7536   3.3427   5.8507   6.1148   6.2576
     6.8095   7.3729   8.0836   9.5037   9.7486   9.9894  13.6723  14.0878
    14.3110  15.8666

          k = 0.4500 0.2500 0.3500 (  5063 PWs)   bands (ev):

   -46.0563 -22.4319 -22.3542 -22.3433  -6.4572  -6.0096  -5.9306  -5.0559
    -5.0399  -4.8678  -4.8351  -4.8065   3.3817   5.9693   6.0930   6.2224
     6.7970   7.2944   8.1367   9.5788   9.5986  10.1460  13.7398  13.9673
    14.2753  15.8434

          k = 0.4500 0.2500 0.4500 (  5070 PWs)   bands (ev):

   -46.0561 -22.4315 -22.3537 -22.3537  -6.4639  -5.9501  -5.9386  -5.0488
    -5.0239  -4.8307  -4.8196  -4.7673   3.4266   5.9365   5.9574   6.0974
     6.5691   7.2668   7.7150   9.6119   9.6163  10.3204  13.9623  14.0246
    14.3494  16.1661

          k =-0.3500 0.4500 0.3500 (  5056 PWs)   bands (ev):

   -46.0559 -22.4602 -22.3426 -22.3425  -6.2038  -6.1289  -6.0437  -5.0462
    -5.0189  -4.8227  -4.7499  -4.7082   3.6391   5.5704   5.8640   6.0550
     6.6769   6.8770   7.3264   9.8703  10.0080  10.0335  13.8850  14.1697
    14.3110  16.2594

          k = 0.4500 0.3500 0.4500 (  5051 PWs)   bands (ev):

   -46.0557 -22.4487 -22.3530 -22.3530  -6.3158  -6.0307  -6.0187  -5.0214
    -5.0214  -4.7421  -4.7058  -4.7028   3.8901   5.5382   5.5411   6.0147
     6.5687   6.6832   6.7721   9.9656   9.9747  10.3117  14.1259  14.1915
    14.3374  16.6150

     the Fermi energy is    10.4074 ev

!    total energy              =    -364.95408301 Ry
     Harris-Foulkes estimate   =    -364.95408301 Ry
     estimated scf accuracy    <          6.6E-09 Ry

     The total energy is the sum of the following terms:

     one-electron contribution =     -83.65436913 Ry
     hartree contribution      =      71.23571738 Ry
     xc contribution           =     -85.83440478 Ry
     ewald contribution        =    -266.70712925 Ry
     smearing contrib. (-TS)   =       0.00610277 Ry

     convergence has been achieved in  13 iterations

     Forces acting on atoms (cartesian axes, Ry/au):

     atom    1 type  1   force =     0.00000000    0.01855569    0.00000000
     atom    2 type  2   force =     0.00000000   -0.03920195    0.00000000
     atom    3 type  3   force =     0.00000000    0.00355968    0.00000000
     atom    4 type  3   force =     0.00000000    0.01352690    0.00000000
     atom    5 type  3   force =     0.00000000    0.00355968    0.00000000

     Total force =     0.014433     Total SCF correction =     0.000019


     Computing stress (Cartesian axis) and pressure

          total   stress  (Ry/bohr**3)                   (kbar)     P=   19.23
   0.00002971   0.00000000   0.00000000          4.37      0.00      0.00
   0.00000000   0.00033278   0.00000000          0.00     48.95      0.00
   0.00000000   0.00000000   0.00002971          0.00      0.00      4.37


     BFGS Geometry Optimization

     number of scf cycles    =   1
     number of bfgs steps    =   0

     energy   new            =    -364.9540830085 Ry

     new trust radius        =       0.0135268965 bohr
     new conv_thr            =       0.0000000100 Ry


ATOMIC_POSITIONS (crystal)
Pb       0.000000000   0.000000000   0.000000000    0   0   0
Ti       0.500000000   0.548000000   0.500000000    0   0   0
O        0.500000000   0.500475258   0.000000000
O        0.500000000   0.001805994   0.500000000
O        0.000000000   0.500475258   0.500000000



     Writing output data file PbTiO3.save/
     NEW-OLD atomic charge density approx. for the potential

     Check: negative core charge=   -0.000006

     total cpu time spent up to now is      326.0 secs

     Self-consistent Calculation

     iteration #  1     ecut=    80.00 Ry     beta= 0.70
     Davidson diagonalization with overlap
     ethr =  1.00E-06,  avg # of iterations =  3.2

     total cpu time spent up to now is      352.5 secs

     total energy              =    -364.95424648 Ry
     Harris-Foulkes estimate   =    -364.95427755 Ry
     estimated scf accuracy    <       0.00004654 Ry

     iteration #  2     ecut=    80.00 Ry     beta= 0.70
     Davidson diagonalization with overlap
     ethr =  1.06E-07,  avg # of iterations =  4.1

     total cpu time spent up to now is      377.1 secs

     total energy              =    -364.95423666 Ry
     Harris-Foulkes estimate   =    -364.95428675 Ry
     estimated scf accuracy    <       0.00012602 Ry

     iteration #  3     ecut=    80.00 Ry     beta= 0.70
     Davidson diagonalization with overlap
     ethr =  1.06E-07,  avg # of iterations =  3.2

     total cpu time spent up to now is      400.0 secs

     total energy              =    -364.95426230 Ry
     Harris-Foulkes estimate   =    -364.95426638 Ry
     estimated scf accuracy    <       0.00001224 Ry

     iteration #  4     ecut=    80.00 Ry     beta= 0.70
     Davidson diagonalization with overlap
     ethr =  2.78E-08,  avg # of iterations =  2.7

     total cpu time spent up to now is      420.5 secs

     total energy              =    -364.95426411 Ry
     Harris-Foulkes estimate   =    -364.95426432 Ry
     estimated scf accuracy    <       0.00000041 Ry

     iteration #  5     ecut=    80.00 Ry     beta= 0.70
     Davidson diagonalization with overlap
     ethr =  9.27E-10,  avg # of iterations =  3.9

     total cpu time spent up to now is      444.9 secs

     total energy              =    -364.95426425 Ry
     Harris-Foulkes estimate   =    -364.95426433 Ry
     estimated scf accuracy    <       0.00000020 Ry

     iteration #  6     ecut=    80.00 Ry     beta= 0.70
     Davidson diagonalization with overlap
     ethr =  4.64E-10,  avg # of iterations =  3.0

     total cpu time spent up to now is      466.4 secs

     total energy              =    -364.95426429 Ry
     Harris-Foulkes estimate   =    -364.95426430 Ry
     estimated scf accuracy    <       0.00000004 Ry

     iteration #  7     ecut=    80.00 Ry     beta= 0.70
     Davidson diagonalization with overlap
     ethr =  9.45E-11,  avg # of iterations =  2.3

     total cpu time spent up to now is      486.9 secs

     End of self-consistent calculation

          k = 0.0500 0.0500 0.0500 (  5047 PWs)   bands (ev):

   -46.0735 -22.4131 -22.3169 -22.3169  -7.2255  -6.2405  -6.1277  -5.0620
    -5.0446  -5.0443  -4.9072  -4.8917   4.4567   6.8147   6.8596   7.0010
     8.7603   8.7873   9.1624   9.2625   9.5153   9.5303  12.5046  12.9706
    12.9791  14.7083

          k = 0.0500 0.0500 0.1500 (  5074 PWs)   bands (ev):

   -46.0733 -22.4127 -22.3275 -22.3165  -7.1448  -6.2062  -6.0980  -5.0696
    -5.0524  -5.0439  -4.9375  -4.8907   4.1607   6.8698   6.9414   7.1776
     8.5535   8.7306   9.1056   9.1717   9.3778   9.5115  12.8216  12.9796
    13.0676  14.9034

          k = 0.0500 0.0500 0.2500 (  5093 PWs)   bands (ev):

   -46.0730 -22.4120 -22.3447 -22.3159  -7.0101  -6.1457  -6.0509  -5.0825
    -5.0652  -5.0431  -4.9939  -4.8859   3.7924   6.8789   7.0506   7.1997
     8.4368   8.5292   9.0204   9.0978   9.3036   9.5775  12.9800  13.2833
    13.3909  14.9048

          k = 0.0500 0.0500 0.3500 (  5090 PWs)   bands (ev):

   -46.0726 -22.4114 -22.3617 -22.3153  -6.8696  -6.0751  -6.0075  -5.1013
    -5.0799  -5.0485  -5.0422  -4.8830   3.5038   6.5349   7.2318   7.3618
     8.1682   8.2847   8.9557   9.0277   9.4045   9.9487  12.9806  13.7011
    13.7887  14.2580

          k = 0.0500 0.0500 0.4500 (  5073 PWs)   bands (ev):

   -46.0724 -22.4109 -22.3722 -22.3149  -6.7795  -6.0185  -5.9896  -5.1285
    -5.0906  -5.0690  -5.0417  -4.8825   3.3536   6.2572   7.4212   7.6132
     7.8873   7.9853   8.9271   9.0208   9.4574  10.3893  12.9662  13.5456
    13.9482  14.0609

          k = 0.0500 0.1500 0.1500 (  5079 PWs)   bands (ev):

   -46.0731 -22.4236 -22.3271 -22.3161  -7.0515  -6.1849  -6.0704  -5.0699
    -5.0630  -5.0508  -4.9291  -4.9115   3.9390   6.8251   6.9292   7.3460
     8.3272   8.5545   8.9522   9.2264   9.3353   9.6006  12.8220  13.2289
    13.2959  15.0134

          k = 0.0500 0.1500 0.2500 (  5077 PWs)   bands (ev):

   -46.0728 -22.4229 -22.3442 -22.3155  -6.9213  -6.1321  -6.0304  -5.0864
    -5.0725  -5.0503  -4.9604  -4.9023   3.6444   6.7833   7.0484   7.2822
     8.1790   8.3902   8.8306   9.0860   9.2745   9.7574  13.2129  13.2971
    13.5620  15.0557

          k = 0.0500 0.1500 0.3500 (  5080 PWs)   bands (ev):

   -46.0724 -22.4222 -22.3612 -22.3149  -6.7878  -6.0780  -5.9865  -5.1055
    -5.0818  -5.0499  -4.9874  -4.8988   3.3974   6.5183   7.1587   7.3342
     7.9378   8.2323   8.7756   9.0746   9.2560  10.0023  13.2215  13.6950
    13.9071  14.4233

          k = 0.0500 0.1500 0.4500 (  5079 PWs)   bands (ev):

   -46.0722 -22.4217 -22.3717 -22.3145  -6.7036  -6.0440  -5.9564  -5.1206
    -5.0902  -5.0496  -4.9963  -4.9013   3.2641   6.2605   7.2730   7.4967
     7.7644   7.9764   8.8068   9.1392   9.2270  10.2000  13.2025  13.9221
    13.9536  14.1507

          k = 0.0500 0.2500 0.2500 (  5076 PWs)   bands (ev):

   -46.0724 -22.4404 -22.3434 -22.3148  -6.7763  -6.1135  -5.9874  -5.0908
    -5.0767  -5.0580  -4.9362  -4.9155   3.4199   6.6497   7.0562   7.1893
     7.9627   8.1145   8.5987   9.0683   9.4529   9.9047  13.2642  13.6193
    13.8354  15.0051

          k = 0.0500 0.2500 0.3500 (  5080 PWs)   bands (ev):

   -46.0721 -22.4396 -22.3604 -22.3142  -6.6638  -6.0793  -5.9335  -5.1006
    -5.0808  -5.0593  -4.9465  -4.8939   3.2285   6.4773   6.9423   7.2620
     7.7454   8.0865   8.5030   8.8875   9.5631   9.9133  13.5856  13.6946
    14.0924  14.7180

          k = 0.0500 0.2500 0.4500 (  5084 PWs)   bands (ev):

   -46.0719 -22.4391 -22.3708 -22.3138  -6.5989  -6.0569  -5.8916  -5.1070
    -5.0887  -5.0605  -4.9397  -4.8902   3.1201   6.2561   6.9670   7.2646
     7.6486   8.0883   8.4439   8.8771   9.5844   9.8801  13.5912  13.9166
    14.2874  14.5302

          k = 0.0500 0.3500 0.3500 (  5079 PWs)   bands (ev):

   -46.0717 -22.4569 -22.3596 -22.3135  -6.5628  -6.0463  -5.8737  -5.0993
    -5.0836  -5.0621  -4.9692  -4.8356   3.0653   6.2913   6.6863   7.2513
     7.6584   7.9462   8.3849   8.8318   9.5522   9.9447  13.6515  13.9859
    14.2833  15.0338

          k = 0.0500 0.3500 0.4500 (  5079 PWs)   bands (ev):

   -46.0715 -22.4564 -22.3699 -22.3131  -6.5329  -6.0133  -5.8197  -5.1005
    -5.0873  -5.0653  -4.9772  -4.8012   2.9781   6.1799   6.5467   7.3206
     7.4772   8.1206   8.2924   8.7114   9.3610  10.0146  13.8868  13.9812
    14.4463  15.0887

          k = 0.0500 0.4500 0.4500 (  5100 PWs)   bands (ev):

   -46.0713 -22.4670 -22.3694 -22.3127  -6.5152  -5.9546  -5.7709  -5.1029
    -5.0866  -5.0657  -5.0013  -4.7498   2.8916   5.9919   6.4338   7.3002
     7.4565   8.0578   8.3458   8.6422   9.0462  10.1917  13.8699  14.2165
    14.5559  15.4530

          k = 0.1500 0.1500 0.1500 (  5095 PWs)   bands (ev):

   -46.0729 -22.4232 -22.3268 -22.3266  -6.9760  -6.1599  -6.0473  -5.0783
    -5.0686  -5.0505  -4.9261  -4.9124   3.7908   6.7960   6.8490   7.4554
     8.1772   8.3274   8.9193   9.2904   9.4344   9.4797  13.0463  13.2767
    13.3119  15.5003

          k = 0.1500 0.1500 0.2500 (  5084 PWs)   bands (ev):

   -46.0726 -22.4225 -22.3437 -22.3260  -6.8538  -6.1176  -6.0080  -5.0927
    -5.0699  -5.0468  -4.9426  -4.9024   3.5657   6.7407   6.8420   7.3067
     7.9617   8.1388   8.9515   9.2123   9.3823   9.6663  13.2401  13.4211
    13.5575  15.1394

          k = 0.1500 0.1500 0.3500 (  5082 PWs)   bands (ev):

   -46.0722 -22.4218 -22.3607 -22.3254  -6.7330  -6.0723  -5.9647  -5.1053
    -5.0627  -5.0408  -4.9660  -4.8988   3.3613   6.5169   6.8477   7.1875
     7.7621   8.1871   8.7145   9.2543   9.3931   9.8754  13.1844  13.7453
    13.8976  14.6320

          k = 0.1500 0.1500 0.4500 (  5084 PWs)   bands (ev):

   -46.0720 -22.4213 -22.3712 -22.3250  -6.6599  -6.0430  -5.9344  -5.1103
    -5.0571  -5.0338  -4.9822  -4.9025   3.2459   6.2663   6.8454   7.2322
     7.6689   8.3008   8.4670   9.3267   9.3775   9.9814  13.1200  13.9615
    14.1346  14.3877

          k = 0.1500 0.2500 0.2500 (  5081 PWs)   bands (ev):

   -46.0722 -22.4399 -22.3430 -22.3253  -6.7065  -6.1045  -5.9898  -5.0948
    -5.0792  -5.0335  -4.9174  -4.8978   3.4130   6.5905   6.7098   7.1314
     7.6773   7.9624   8.8751   9.2611   9.4972   9.7556  13.3001  13.6082
    13.7889  14.9453

          k = 0.1500 0.2500 0.3500 (  5080 PWs)   bands (ev):

   -46.0719 -22.4392 -22.3599 -22.3247  -6.5993  -6.0874  -5.9423  -5.0977
    -5.0686  -5.0235  -4.9200  -4.8784   3.2726   6.4497   6.6698   6.8978
     7.3813   8.0092   8.9150   9.0851   9.5651   9.7554  13.4280  13.7244
    14.0327  14.9011

          k = 0.1500 0.2500 0.4500 (  5077 PWs)   bands (ev):

   -46.0717 -22.4387 -22.3703 -22.3243  -6.5388  -6.0801  -5.9012  -5.0965
    -5.0589  -5.0206  -4.9137  -4.8768   3.1873   6.2551   6.6360   6.8266
     7.2920   8.1069   8.7295   9.1713   9.5018   9.7355  13.4379  13.9045
    14.2311  14.9304

          k = 0.1500 0.3500 0.3500 (  5081 PWs)   bands (ev):

   -46.0715 -22.4565 -22.3591 -22.3240  -6.4861  -6.0733  -5.9176  -5.0943
    -5.0617  -5.0025  -4.9273  -4.8202   3.1696   6.2549   6.5782   6.6628
     7.0907   7.9779   8.7758   9.1115   9.4019   9.9002  13.5639  13.8988
    14.1999  15.2057

          k = 0.1500 0.3500 0.4500 (  5079 PWs)   bands (ev):

   -46.0713 -22.4559 -22.3695 -22.3236  -6.4555  -6.0631  -5.8680  -5.0900
    -5.0428  -5.0065  -4.9297  -4.7859   3.1123   6.1648   6.4708   6.6321
     6.8911   8.0489   8.7230   9.0201   9.1901  10.0047  13.7961  13.8991
    14.3512  15.4268

          k = 0.1500 0.4500 0.4500 (  5073 PWs)   bands (ev):

   -46.0711 -22.4666 -22.3690 -22.3231  -6.4332  -6.0162  -5.8484  -5.0873
    -5.0236  -4.9897  -4.9541  -4.7332   3.0588   5.9725   6.3902   6.6227
     6.7537   8.0504   8.4721   8.9262   9.1341  10.1736  13.8553  14.0957
    14.4511  15.7641

          k = 0.2500 0.2500 0.2500 (  5070 PWs)   bands (ev):

   -46.0719 -22.4392 -22.3425 -22.3421  -6.6021  -6.0878  -5.9849  -5.0840
    -5.0798  -5.0026  -4.8943  -4.8716   3.3834   6.4074   6.4910   6.9793
     7.4541   7.5357   9.0557   9.4994   9.5131   9.6523  13.3025  13.7570
    13.7660  14.9733

          k = 0.2500 0.2500 0.3500 (  5072 PWs)   bands (ev):

   -46.0715 -22.4385 -22.3592 -22.3416  -6.5144  -6.0763  -5.9547  -5.0784
    -5.0635  -4.9663  -4.8771  -4.8533   3.3321   6.2726   6.3489   6.6567
     7.1828   7.5009   8.9175   9.4389   9.5477   9.7943  13.3768  13.8132
    14.0186  15.1736

          k = 0.2500 0.2500 0.4500 (  5073 PWs)   bands (ev):

   -46.0713 -22.4380 -22.3696 -22.3412  -6.4713  -6.0752  -5.9171  -5.0741
    -5.0515  -4.9312  -4.8727  -4.8494   3.2916   6.1769   6.2572   6.4434
     7.1171   7.5426   8.6893   9.4652   9.5053   9.8528  13.4860  13.8993
    14.2144  15.4189

          k = 0.2500 0.3500 0.3500 (  5057 PWs)   bands (ev):

   -46.0712 -22.4557 -22.3584 -22.3409  -6.3751  -6.0986  -5.9773  -5.0709
    -5.0447  -4.9257  -4.8520  -4.7908   3.3502   6.0293   6.1796   6.4368
     6.8663   7.3838   8.4603   9.5176   9.7076   9.8950  13.5304  13.9512
    14.1502  15.5069

          k = 0.2500 0.3500 0.4500 (  5063 PWs)   bands (ev):

   -46.0710 -22.4552 -22.3688 -22.3405  -6.3449  -6.1141  -5.9348  -5.0641
    -5.0282  -4.8993  -4.8409  -4.7568   3.3609   6.0185   6.0579   6.2402
     6.6813   7.4107   8.1031   9.5372   9.6968  10.0081  13.7731  13.9390
    14.2959  15.8461

          k = 0.2500 0.4500 0.4500 (  5070 PWs)   bands (ev):

   -46.0708 -22.4658 -22.3683 -22.3400  -6.3009  -6.0978  -5.9462  -5.0598
    -5.0100  -4.8782  -4.8234  -4.7018   3.3885   5.8370   6.0669   6.1162
     6.4916   7.3847   7.6440   9.5330   9.7417  10.1564  13.9151  14.0735
    14.3867  16.1820

          k = 0.3500 0.3500 0.3500 (  5055 PWs)   bands (ev):

   -46.0708 -22.4550 -22.3578 -22.3576  -6.3081  -6.0879  -6.0143  -5.0464
    -5.0331  -4.8523  -4.7827  -4.7542   3.5432   5.7682   5.8686   6.2968
     6.8173   6.8761   7.8234   9.7925   9.8887  10.0261  13.6973  14.1250
    14.1277  15.8766

          k = 0.3500 0.3500 0.4500 (  5056 PWs)   bands (ev):

   -46.0706 -22.4545 -22.3681 -22.3573  -6.2984  -6.0892  -5.9921  -5.0362
    -5.0220  -4.8007  -4.7550  -4.7225   3.6644   5.6659   5.7255   6.1305
     6.6459   6.8593   7.3365   9.8483   9.9629  10.1418  13.9284  14.0821
    14.2871  16.2556

          k = 0.3500 0.4500 0.4500 (  5051 PWs)   bands (ev):

   -46.0704 -22.4651 -22.3676 -22.3568  -6.1944  -6.1403  -6.0251  -5.0325
    -5.0060  -4.7723  -4.7071  -4.6636   3.8587   5.5049   5.6538   5.9723
     6.4599   6.7093   6.8315   9.9438  10.1238  10.1508  14.0886  14.1959
    14.3578  16.6178

          k = 0.4500 0.4500 0.4500 (  5034 PWs)   bands (ev):

   -46.0702 -22.4647 -22.3672 -22.3672  -6.2158  -6.0788  -6.0644  -5.0173
    -5.0024  -4.7096  -4.6416  -4.6356   4.3544   5.3257   5.4044   5.8822
     5.9510   6.4449   6.5616  10.1270  10.1400  10.3029  14.2631  14.3344
    14.3373  16.9729

          k =-0.0500 0.1500 0.0500 (  5074 PWs)   bands (ev):

   -46.0733 -22.4240 -22.3165 -22.3165  -7.1304  -6.2167  -6.0938  -5.0614
    -5.0536  -5.0510  -4.9273  -4.9029   4.1535   6.8612   6.8634   7.1869
     8.5739   8.5994   9.1140   9.1504   9.5391   9.5583  12.5063  13.2184
    13.2357  14.7105

          k =-0.0500 0.2500 0.0500 (  5093 PWs)   bands (ev):

   -46.0730 -22.4416 -22.3159 -22.3158  -6.9678  -6.1820  -6.0338  -5.0705
    -5.0614  -5.0600  -4.9877  -4.8979   3.7713   6.8297   6.9460   7.1170
     8.3241   8.3463   9.1002   9.2218   9.6077   9.6743  12.5090  13.6018
    13.6273  14.7147

          k =-0.0500 0.3500 0.0500 (  5090 PWs)   bands (ev):

   -46.0726 -22.4591 -22.3152 -22.3152  -6.7902  -6.1561  -5.9651  -5.1003
    -5.0695  -5.0596  -5.0439  -4.8951   3.4675   6.4525   7.0359   7.1682
     8.1034   8.1059   9.0388   9.4533   9.6611  10.0529  12.5107  13.9706
    14.0014  14.3451

          k =-0.0500 0.4500 0.0500 (  5073 PWs)   bands (ev):

   -46.0724 -22.4698 -22.3148 -22.3148  -6.6684  -6.1488  -5.9162  -5.1379
    -5.0742  -5.0659  -5.0590  -4.8948   3.3074   6.1458   7.0980   7.2627
     7.9414   7.9725   8.9989   9.5438   9.6964  10.5079  12.5088  13.6044
    14.1925  14.2308

          k = 0.1500 0.0500 0.1500 (  5079 PWs)   bands (ev):

   -46.0731 -22.4123 -22.3273 -22.3270  -7.0684  -6.1782  -6.0668  -5.0774
    -5.0528  -5.0503  -4.9382  -4.9046   3.9484   6.8209   7.0071   7.3267
     8.3658   8.5028   8.9887   9.2032   9.3966   9.5325  13.0152  13.0795
    13.1082  15.2409

          k =-0.0500 0.2500 0.1500 (  5077 PWs)   bands (ev):

   -46.0728 -22.4411 -22.3264 -22.3154  -6.8939  -6.1536  -6.0214  -5.0830
    -5.0684  -5.0586  -4.9538  -4.9128   3.6308   6.7261   6.9799   7.2655
     8.0710   8.3278   8.8509   9.2598   9.3934   9.8054  12.8203  13.6069
    13.6563  15.0356

          k = 0.2500 0.0500 0.1500 (  5077 PWs)   bands (ev):

   -46.0728 -22.4116 -22.3442 -22.3265  -6.9438  -6.1264  -6.0169  -5.0884
    -5.0619  -5.0504  -4.9686  -4.9043   3.6548   6.8057   7.0585   7.2860
     8.1563   8.2632   8.9099   9.1949   9.3959   9.6509  13.0537  13.3718
    13.4674  15.2592

          k =-0.0500 0.3500 0.1500 (  5080 PWs)   bands (ev):

   -46.0724 -22.4586 -22.3257 -22.3148  -6.7257  -6.1273  -5.9669  -5.1079
    -5.0683  -5.0644  -4.9842  -4.9097   3.3688   6.4101   6.9854   7.2634
     7.8693   8.1263   8.9350   9.2491   9.4563  10.1058  12.8125  13.9643
    14.0081  14.5260

          k = 0.3500 0.0500 0.1500 (  5080 PWs)   bands (ev):

   -46.0724 -22.4110 -22.3612 -22.3258  -6.8190  -6.0611  -5.9710  -5.1039
    -5.0674  -5.0499  -5.0067  -4.9012   3.4073   6.5366   7.0897   7.3866
     7.8967   8.2490   8.6257   9.2441   9.4239   9.9572  13.0344  13.7547
    13.8399  14.4771

          k =-0.0500 0.4500 0.1500 (  5079 PWs)   bands (ev):

   -46.0722 -22.4693 -22.3253 -22.3144  -6.6143  -6.1147  -5.9299  -5.1299
    -5.0710  -5.0666  -4.9945  -4.9123   3.2256   6.1234   6.9899   7.3579
     7.7432   7.9870   9.0336   9.2270   9.4961  10.3392  12.7987  13.9891
    14.2030  14.2538

          k = 0.4500 0.0500 0.1500 (  5079 PWs)   bands (ev):

   -46.0722 -22.4105 -22.3717 -22.3254  -6.7426  -6.0044  -5.9521  -5.1193
    -5.0711  -5.0496  -5.0247  -4.9022   3.2734   6.2656   7.1953   7.4759
     7.8342   8.0548   8.5441   9.2317   9.4615  10.2259  12.9933  13.9723
    14.0085  14.0883

          k = 0.2500 0.0500 0.2500 (  5076 PWs)   bands (ev):

   -46.0724 -22.4110 -22.3437 -22.3433  -6.8427  -6.0825  -5.9614  -5.0882
    -5.0642  -5.0560  -4.9413  -4.9317   3.4452   6.7605   6.9990   7.2781
     7.8471   7.9659   8.9380   9.0405   9.5999   9.7080  13.2942  13.4282
    13.7308  15.1052

          k =-0.0500 0.3500 0.2500 (  5080 PWs)   bands (ev):

   -46.0721 -22.4577 -22.3427 -22.3141  -6.6333  -6.0873  -5.9385  -5.1019
    -5.0785  -5.0626  -4.9487  -4.8959   3.2135   6.3556   6.9618   7.1749
     7.7776   8.0364   8.4835   9.1125   9.5161  10.0140  13.2511  13.9875
    14.0986  14.8076

          k = 0.3500 0.0500 0.2500 (  5080 PWs)   bands (ev):

   -46.0721 -22.4103 -22.3604 -22.3428  -6.7528  -6.0143  -5.9085  -5.0935
    -5.0664  -5.0575  -4.9540  -4.9229   3.2525   6.5419   6.8979   7.2706
     7.6771   7.9579   8.6176   9.1186   9.6206   9.8883  13.3201  13.7598
    14.0072  14.7776

          k =-0.0500 0.4500 0.2500 (  5084 PWs)   bands (ev):

   -46.0719 -22.4684 -22.3422 -22.3137  -6.5500  -6.0586  -5.9087  -5.1148
    -5.0778  -5.0689  -4.9471  -4.8889   3.0950   6.0850   6.9433   7.1609
     7.7241   7.9760   8.4970   9.1552   9.4895  10.0639  13.2394  14.2130
    14.2506  14.6935

          k = 0.4500 0.0500 0.2500 (  5084 PWs)   bands (ev):

   -46.0719 -22.4099 -22.3709 -22.3423  -6.7047  -5.9487  -5.8855  -5.1025
    -5.0688  -5.0607  -4.9462  -4.9273   3.1423   6.2726   6.9834   7.1402
     7.7207   8.0730   8.3074   9.1996   9.5532  10.0142  13.2999  14.0154
    14.1949  14.5706

          k = 0.3500 0.0500 0.3500 (  5079 PWs)   bands (ev):

   -46.0717 -22.4096 -22.3598 -22.3595  -6.7082  -5.9316  -5.8445  -5.0880
    -5.0713  -5.0561  -4.9715  -4.8819   3.1014   6.4750   6.6288   7.2271
     7.4059   7.9827   8.6287   8.8645   9.5784  10.0120  13.6572  13.8000
    14.1957  15.0312

          k =-0.0500 0.4500 0.3500 (  5079 PWs)   bands (ev):

   -46.0715 -22.4676 -22.3590 -22.3131  -6.5193  -5.9973  -5.8364  -5.1048
    -5.0843  -5.0667  -4.9808  -4.8001   2.9679   6.0407   6.6501   7.1835
     7.6663   7.9311   8.3251   8.8468   9.3441  10.0668  13.6421  14.2177
    14.4190  15.2373

          k = 0.4500 0.0500 0.3500 (  5079 PWs)   bands (ev):

   -46.0715 -22.4092 -22.3700 -22.3592  -6.6910  -5.8543  -5.8119  -5.0907
    -5.0697  -5.0632  -4.9827  -4.8523   3.0108   6.2350   6.6407   7.1047
     7.3756   8.1510   8.3982   8.8700   9.3967  10.1597  13.7113  14.0117
    14.3311  15.1189

          k = 0.4500 0.0500 0.4500 (  5100 PWs)   bands (ev):

   -46.0713 -22.4088 -22.3696 -22.3695  -6.6919  -5.7773  -5.7640  -5.0896
    -5.0677  -5.0632  -5.0108  -4.8062   2.9300   6.1151   6.5197   7.1383
     7.1585   8.2990   8.4588   8.6190   9.1556  10.3314  13.9915  14.0182
    14.4187  15.3921

          k =-0.1500 0.2500 0.1500 (  5084 PWs)   bands (ev):

   -46.0726 -22.4407 -22.3261 -22.3259  -6.8211  -6.1322  -6.0146  -5.0912
    -5.0770  -5.0454  -4.9292  -4.9135   3.5506   6.7203   6.7417   7.3152
     7.9794   8.1460   8.7611   9.3464   9.4909   9.6940  13.0176  13.6069
    13.6608  15.1641

          k =-0.1500 0.3500 0.1500 (  5082 PWs)   bands (ev):

   -46.0722 -22.4581 -22.3254 -22.3252  -6.6580  -6.1074  -5.9803  -5.1105
    -5.0735  -5.0323  -4.9511  -4.9103   3.3306   6.4123   6.6705   7.2189
     7.8543   8.1237   8.6125   9.3612   9.5396   9.9610  12.9557  13.9501
    13.9793  14.6831

          k =-0.1500 0.4500 0.1500 (  5084 PWs)   bands (ev):

   -46.0720 -22.4688 -22.3249 -22.3248  -6.5520  -6.0942  -5.9582  -5.1205
    -5.0712  -5.0170  -4.9674  -4.9156   3.2052   6.1267   6.6193   7.2671
     7.8013   8.0888   8.5761   9.3577   9.5693  10.0920  12.8996  14.1693
    14.1769  14.4692

          k = 0.2500 0.1500 0.2500 (  5081 PWs)   bands (ev):

   -46.0722 -22.4218 -22.3432 -22.3428  -6.7515  -6.0852  -5.9703  -5.0905
    -5.0757  -5.0324  -4.9218  -4.9049   3.4296   6.6366   6.7484   7.1251
     7.6150   7.9357   9.0531   9.2403   9.5542   9.6173  13.3510  13.5355
    13.7019  14.9546

          k =-0.1500 0.3500 0.2500 (  5080 PWs)   bands (ev):

   -46.0719 -22.4573 -22.3423 -22.3246  -6.5603  -6.0858  -5.9702  -5.1014
    -5.0750  -5.0124  -4.9204  -4.8809   3.2561   6.3433   6.5706   6.9280
     7.5513   7.9693   8.6543   9.3592   9.5583   9.8101  13.2356  13.9184
    14.0393  14.9345

          k = 0.3500 0.1500 0.2500 (  5080 PWs)   bands (ev):

   -46.0719 -22.4211 -22.3600 -22.3423  -6.6619  -6.0389  -5.9289  -5.0922
    -5.0680  -5.0122  -4.9212  -4.9014   3.2888   6.4915   6.6516   6.8667
     7.4309   7.9312   8.9071   9.2519   9.5124   9.7966  13.3274  13.7616
    13.9718  14.9092

          k =-0.1500 0.4500 0.2500 (  5077 PWs)   bands (ev):

   -46.0717 -22.4679 -22.3418 -22.3242  -6.4746  -6.0640  -5.9603  -5.1042
    -5.0705  -4.9932  -4.9280  -4.8739   3.1600   6.0922   6.4559   6.9205
     7.5368   8.0422   8.4830   9.4119   9.5209   9.8206  13.2134  14.1386
    14.2250  15.0161

          k = 0.4500 0.1500 0.2500 (  5077 PWs)   bands (ev):

   -46.0717 -22.4206 -22.3704 -22.3419  -6.6149  -6.0035  -5.8990  -5.0919
    -5.0611  -4.9945  -4.9212  -4.9073   3.2026   6.2684   6.5789   6.8267
     7.3960   7.9909   8.7288   9.3095   9.4210   9.8723  13.3099  13.9586
    14.1781  14.9405

          k = 0.3500 0.1500 0.3500 (  5081 PWs)   bands (ev):

   -46.0715 -22.4204 -22.3593 -22.3591  -6.6164  -5.9734  -5.8916  -5.0829
    -5.0607  -4.9900  -4.9183  -4.8661   3.2017   6.4437   6.4765   6.6465
     7.0535   7.9104   8.9410   9.1290   9.3136  10.0147  13.5582  13.8137
    14.1319  15.1919

          k =-0.1500 0.4500 0.3500 (  5079 PWs)   bands (ev):

   -46.0713 -22.4671 -22.3586 -22.3236  -6.4373  -6.0353  -5.9056  -5.0930
    -5.0528  -4.9797  -4.9465  -4.7842   3.1010   6.0234   6.5066   6.5812
     7.0628   8.0035   8.5850   9.1040   9.2716  10.0190  13.5971  14.1098
    14.3387  15.4977

          k = 0.4500 0.1500 0.3500 (  5079 PWs)   bands (ev):

   -46.0713 -22.4200 -22.3696 -22.3587  -6.6006  -5.9212  -5.8642  -5.0792
    -5.0485  -4.9756  -4.9291  -4.8378   3.1424   6.2258   6.4833   6.5416
     6.9405   7.9475   8.7829   9.0979   9.1897  10.1492  13.6634  13.9503
    14.2781  15.4336

          k = 0.4500 0.1500 0.4500 (  5073 PWs)   bands (ev):

   -46.0711 -22.4195 -22.3691 -22.3691  -6.6032  -5.8546  -5.8425  -5.0741
    -5.0271  -4.9626  -4.9497  -4.7917   3.0975   6.1043   6.4511   6.5360
     6.6423   7.9695   8.5790   9.0603   9.0697  10.3259  13.9240  13.9690
    14.3703  15.7415

          k =-0.2500 0.3500 0.2500 (  5072 PWs)   bands (ev):

   -46.0715 -22.4565 -22.3417 -22.3414  -6.4541  -6.0841  -5.9998  -5.0852
    -5.0647  -4.9640  -4.8775  -4.8450   3.3132   6.1765   6.3351   6.6417
     7.3881   7.4133   8.7930   9.5220   9.6337   9.7222  13.3069  13.9141
    14.0338  15.1842

          k =-0.2500 0.4500 0.2500 (  5073 PWs)   bands (ev):

   -46.0713 -22.4672 -22.3412 -22.3410  -6.3683  -6.0735  -6.0091  -5.0836
    -5.0553  -4.9213  -4.8846  -4.8308   3.2599   6.0402   6.1135   6.5710
     7.3670   7.4347   8.5619   9.4751   9.6627   9.7755  13.3644  14.0680
    14.2310  15.4664

          k = 0.3500 0.2500 0.3500 (  5057 PWs)   bands (ev):

   -46.0712 -22.4377 -22.3585 -22.3583  -6.4646  -6.0333  -5.9573  -5.0593
    -5.0521  -4.9119  -4.8336  -4.8315   3.3713   6.1087   6.1132   6.4579
     6.9084   7.2957   8.4953   9.5543   9.5964  10.0198  13.5311  13.9212
    14.1160  15.5002

          k =-0.2500 0.4500 0.3500 (  5063 PWs)   bands (ev):

   -46.0710 -22.4664 -22.3579 -22.3404  -6.3075  -6.0882  -5.9927  -5.0673
    -5.0305  -4.8922  -4.8455  -4.7528   3.3463   5.8588   6.1147   6.2529
     6.8043   7.3676   8.0910   9.5105   9.7449   9.9954  13.6629  14.0712
    14.2958  15.8633

          k = 0.4500 0.2500 0.3500 (  5063 PWs)   bands (ev):

   -46.0710 -22.4373 -22.3688 -22.3580  -6.4515  -6.0118  -5.9334  -5.0538
    -5.0372  -4.8659  -4.8339  -4.8033   3.3826   5.9731   6.0986   6.2197
     6.7917   7.2928   8.1382   9.5827   9.6031  10.1431  13.7280  13.9563
    14.2626  15.8416

          k = 0.4500 0.2500 0.4500 (  5070 PWs)   bands (ev):

   -46.0708 -22.4369 -22.3684 -22.3683  -6.4577  -5.9527  -5.9413  -5.0468
    -5.0210  -4.8296  -4.8187  -4.7631   3.4266   5.9419   5.9647   6.0954
     6.5605   7.2660   7.7142   9.6161   9.6201  10.3170  13.9508  14.0119
    14.3389  16.1656

          k =-0.3500 0.4500 0.3500 (  5056 PWs)   bands (ev):

   -46.0706 -22.4656 -22.3573 -22.3572  -6.2042  -6.1249  -6.0463  -5.0433
    -5.0167  -4.8184  -4.7490  -4.7076   3.6424   5.5767   5.8609   6.0541
     6.6742   6.8690   7.3314   9.8781  10.0112  10.0333  13.8750  14.1549
    14.2962  16.2562

          k = 0.4500 0.3500 0.4500 (  5051 PWs)   bands (ev):

   -46.0704 -22.4541 -22.3676 -22.3676  -6.3097  -6.0330  -6.0211  -5.0194
    -5.0185  -4.7380  -4.7047  -4.7023   3.8904   5.5425   5.5474   6.0112
     6.5597   6.6826   6.7721   9.9720   9.9808  10.3082  14.1139  14.1783
    14.3258  16.6143

     the Fermi energy is    10.4077 ev

!    total energy              =    -364.95426430 Ry
     Harris-Foulkes estimate   =    -364.95426430 Ry
     estimated scf accuracy    <          5.2E-10 Ry

     The total energy is the sum of the following terms:

     one-electron contribution =     -83.55919232 Ry
     hartree contribution      =      71.18429609 Ry
     xc contribution           =     -85.83067365 Ry
     ewald contribution        =    -266.75480277 Ry
     smearing contrib. (-TS)   =       0.00610836 Ry

     convergence has been achieved in   7 iterations

     Forces acting on atoms (cartesian axes, Ry/au):

     atom    1 type  1   force =     0.00000000    0.01850844    0.00000000
     atom    2 type  2   force =     0.00000000   -0.03629842    0.00000000
     atom    3 type  3   force =     0.00000000    0.00434015    0.00000000
     atom    4 type  3   force =     0.00000000    0.00910969    0.00000000
     atom    5 type  3   force =     0.00000000    0.00434015    0.00000000

     Total force =     0.010985     Total SCF correction =     0.000056


     Computing stress (Cartesian axis) and pressure

          total   stress  (Ry/bohr**3)                   (kbar)     P=   17.31
   0.00002582   0.00000000   0.00000000          3.80      0.00      0.00
   0.00000000   0.00030141   0.00000000          0.00     44.34      0.00
   0.00000000   0.00000000   0.00002582          0.00      0.00      3.80


     number of scf cycles    =   2
     number of bfgs steps    =   1

     energy   old            =    -364.9540830085 Ry
     energy   new            =    -364.9542642959 Ry

     CASE: energy  _new < energy  _old

     new trust radius        =       0.0148795862 bohr
     new conv_thr            =       0.0000000002 Ry


ATOMIC_POSITIONS (crystal)
Pb       0.000000000   0.000000000   0.000000000    0   0   0
Ti       0.500000000   0.548000000   0.500000000    0   0   0
O        0.500000000   0.501356591   0.000000000
O        0.500000000   0.003792588   0.500000000
O        0.000000000   0.501356591   0.500000000



     Writing output data file PbTiO3.save/
     NEW-OLD atomic charge density approx. for the potential

     Check: negative core charge=   -0.000006

     total cpu time spent up to now is      504.4 secs

     Self-consistent Calculation

     iteration #  1     ecut=    80.00 Ry     beta= 0.70
     Davidson diagonalization with overlap
     ethr =  1.00E-06,  avg # of iterations =  3.3

     total cpu time spent up to now is      531.9 secs

     total energy              =    -364.95440887 Ry
     Harris-Foulkes estimate   =    -364.95444747 Ry
     estimated scf accuracy    <       0.00005922 Ry

     iteration #  2     ecut=    80.00 Ry     beta= 0.70
     Davidson diagonalization with overlap
     ethr =  1.35E-07,  avg # of iterations =  4.0

     total cpu time spent up to now is      556.3 secs

     total energy              =    -364.95439544 Ry
     Harris-Foulkes estimate   =    -364.95445937 Ry
     estimated scf accuracy    <       0.00016203 Ry

     iteration #  3     ecut=    80.00 Ry     beta= 0.70
     Davidson diagonalization with overlap
     ethr =  1.35E-07,  avg # of iterations =  3.2

     total cpu time spent up to now is      579.3 secs

     total energy              =    -364.95442848 Ry
     Harris-Foulkes estimate   =    -364.95443331 Ry
     estimated scf accuracy    <       0.00001491 Ry

     iteration #  4     ecut=    80.00 Ry     beta= 0.70
     Davidson diagonalization with overlap
     ethr =  3.39E-08,  avg # of iterations =  2.7

     total cpu time spent up to now is      599.7 secs

     total energy              =    -364.95443058 Ry
     Harris-Foulkes estimate   =    -364.95443086 Ry
     estimated scf accuracy    <       0.00000053 Ry

     iteration #  5     ecut=    80.00 Ry     beta= 0.70
     Davidson diagonalization with overlap
     ethr =  1.19E-09,  avg # of iterations =  3.9

     total cpu time spent up to now is      624.3 secs

     total energy              =    -364.95443075 Ry
     Harris-Foulkes estimate   =    -364.95443089 Ry
     estimated scf accuracy    <       0.00000037 Ry

     iteration #  6     ecut=    80.00 Ry     beta= 0.70
     Davidson diagonalization with overlap
     ethr =  8.36E-10,  avg # of iterations =  2.9

     total cpu time spent up to now is      645.6 secs

     total energy              =    -364.95443082 Ry
     Harris-Foulkes estimate   =    -364.95443084 Ry
     estimated scf accuracy    <       0.00000004 Ry

     iteration #  7     ecut=    80.00 Ry     beta= 0.70
     Davidson diagonalization with overlap
     ethr =  1.02E-10,  avg # of iterations =  2.3

     total cpu time spent up to now is      666.2 secs

     total energy              =    -364.95443083 Ry
     Harris-Foulkes estimate   =    -364.95443083 Ry
     estimated scf accuracy    <          5.0E-10 Ry

     iteration #  8     ecut=    80.00 Ry     beta= 0.70
     Davidson diagonalization with overlap
     ethr =  1.14E-12,  avg # of iterations =  4.0

     total cpu time spent up to now is      694.4 secs

     End of self-consistent calculation

          k = 0.0500 0.0500 0.0500 (  5047 PWs)   bands (ev):

   -46.0890 -22.4190 -22.3325 -22.3324  -7.2258  -6.2377  -6.1321  -5.0588
    -5.0425  -5.0422  -4.9047  -4.8903   4.4590   6.8155   6.8573   6.9982
     8.7844   8.8124   9.1617   9.2752   9.5188   9.5271  12.4925  12.9351
    12.9427  14.6921

          k = 0.0500 0.0500 0.1500 (  5074 PWs)   bands (ev):

   -46.0888 -22.4186 -22.3431 -22.3320  -7.1446  -6.2037  -6.1024  -5.0665
    -5.0502  -5.0418  -4.9352  -4.8890   4.1631   6.8697   6.9369   7.1764
     8.5752   8.7487   9.1125   9.1750   9.3782   9.5152  12.8101  12.9437
    13.0405  14.8764

          k = 0.0500 0.0500 0.2500 (  5093 PWs)   bands (ev):

   -46.0885 -22.4179 -22.3602 -22.3314  -7.0092  -6.1438  -6.0552  -5.0795
    -5.0631  -5.0409  -4.9914  -4.8842   3.7949   6.8753   7.0493   7.1975
     8.4484   8.5366   9.0311   9.1036   9.3100   9.5818  12.9439  13.2723
    13.3713  14.8772

          k = 0.0500 0.0500 0.3500 (  5090 PWs)   bands (ev):

   -46.0881 -22.4173 -22.3772 -22.3308  -6.8678  -6.0743  -6.0115  -5.0988
    -5.0774  -5.0458  -5.0401  -4.8813   3.5066   6.5298   7.2309   7.3585
     8.1699   8.2845   8.9668   9.0432   9.4157   9.9524  12.9443  13.6909
    13.7717  14.2608

          k = 0.0500 0.0500 0.4500 (  5073 PWs)   bands (ev):

   -46.0879 -22.4169 -22.3877 -22.3304  -6.7769  -6.0188  -5.9930  -5.1262
    -5.0875  -5.0665  -5.0396  -4.8807   3.3566   6.2504   7.4207   7.6104
     7.8874   7.9804   8.9326   9.0460   9.4687  10.3937  12.9319  13.5471
    13.9386  14.0427

          k = 0.0500 0.1500 0.1500 (  5079 PWs)   bands (ev):

   -46.0886 -22.4295 -22.3426 -22.3316  -7.0519  -6.1819  -6.0749  -5.0669
    -5.0607  -5.0487  -4.9270  -4.9095   3.9420   6.8247   6.9304   7.3430
     8.3426   8.5705   8.9612   9.2295   9.3338   9.5991  12.8106  13.1966
    13.2699  14.9945

          k = 0.0500 0.1500 0.2500 (  5077 PWs)   bands (ev):

   -46.0883 -22.4288 -22.3597 -22.3310  -6.9210  -6.1297  -6.0346  -5.0837
    -5.0698  -5.0481  -4.9582  -4.9006   3.6473   6.7822   7.0486   7.2793
     8.1861   8.3989   8.8384   9.0935   9.2789   9.7573  13.1842  13.2823
    13.5424  15.0416

          k = 0.0500 0.1500 0.3500 (  5080 PWs)   bands (ev):

   -46.0879 -22.4281 -22.3767 -22.3304  -6.7868  -6.0762  -5.9904  -5.1030
    -5.0788  -5.0477  -4.9854  -4.8971   3.4003   6.5143   7.1570   7.3331
     7.9395   8.2347   8.7828   9.0900   9.2611  10.0044  13.1887  13.6853
    13.8901  14.4253

          k = 0.0500 0.1500 0.4500 (  5079 PWs)   bands (ev):

   -46.0877 -22.4276 -22.3872 -22.3300  -6.7021  -6.0427  -5.9600  -5.1183
    -5.0871  -5.0474  -4.9943  -4.8995   3.2672   6.2541   7.2717   7.4947
     7.7666   7.9743   8.8184   9.1529   9.2327  10.2039  13.1707  13.9178
    13.9508  14.1328

          k = 0.0500 0.2500 0.2500 (  5076 PWs)   bands (ev):

   -46.0879 -22.4462 -22.3589 -22.3303  -6.7774  -6.1099  -5.9915  -5.0882
    -5.0737  -5.0558  -4.9339  -4.9140   3.4235   6.6542   7.0541   7.1882
     7.9681   8.1185   8.6064   9.0675   9.4605   9.9015  13.2540  13.5903
    13.8167  15.0015

          k = 0.0500 0.2500 0.3500 (  5080 PWs)   bands (ev):

   -46.0876 -22.4455 -22.3759 -22.3297  -6.6647  -6.0757  -5.9371  -5.0979
    -5.0778  -5.0571  -4.9444  -4.8925   3.2318   6.4769   6.9383   7.2637
     7.7488   8.0877   8.5042   8.8961   9.5728   9.9113  13.5600  13.6822
    14.0762  14.7177

          k = 0.0500 0.2500 0.4500 (  5084 PWs)   bands (ev):

   -46.0874 -22.4450 -22.3863 -22.3293  -6.5998  -6.0527  -5.8953  -5.1046
    -5.0855  -5.0583  -4.9377  -4.8888   3.1232   6.2511   6.9662   7.2631
     7.6564   8.0848   8.4423   8.8897   9.5938   9.8812  13.5625  13.9085
    14.2713  14.5306

          k = 0.0500 0.3500 0.3500 (  5079 PWs)   bands (ev):

   -46.0872 -22.4627 -22.3751 -22.3290  -6.5661  -6.0400  -5.8776  -5.0966
    -5.0805  -5.0599  -4.9669  -4.8346   3.0690   6.2979   6.6768   7.2569
     7.6569   7.9481   8.3877   8.8315   9.5622   9.9430  13.6433  13.9594
    14.2682  15.0305

          k = 0.0500 0.3500 0.4500 (  5079 PWs)   bands (ev):

   -46.0870 -22.4622 -22.3854 -22.3286  -6.5363  -6.0061  -5.8237  -5.0978
    -5.0841  -5.0632  -4.9751  -4.8002   2.9812   6.1802   6.5431   7.3191
     7.4834   8.1187   8.2897   8.7168   9.3692  10.0179  13.8794  13.9551
    14.4309  15.0879

          k = 0.0500 0.4500 0.4500 (  5100 PWs)   bands (ev):

   -46.0868 -22.4728 -22.3849 -22.3282  -6.5197  -5.9460  -5.7752  -5.1001
    -5.0833  -5.0637  -4.9990  -4.7491   2.8948   5.9965   6.4270   7.3052
     7.4521   8.0617   8.3416   8.6423   9.0550  10.1958  13.8639  14.1910
    14.5416  15.4477

          k = 0.1500 0.1500 0.1500 (  5095 PWs)   bands (ev):

   -46.0884 -22.4290 -22.3424 -22.3421  -6.9759  -6.1573  -6.0517  -5.0754
    -5.0663  -5.0482  -4.9235  -4.9108   3.7935   6.7984   6.8473   7.4536
     8.1887   8.3335   8.9382   9.2923   9.4291   9.4798  13.0356  13.2524
    13.2848  15.4844

          k = 0.1500 0.1500 0.2500 (  5084 PWs)   bands (ev):

   -46.0881 -22.4284 -22.3593 -22.3416  -6.8528  -6.1157  -6.0123  -5.0901
    -5.0675  -5.0445  -4.9402  -4.9007   3.5682   6.7408   6.8422   7.3056
     7.9682   8.1411   8.9642   9.2144   9.3859   9.6645  13.2172  13.4085
    13.5381  15.1408

          k = 0.1500 0.1500 0.3500 (  5082 PWs)   bands (ev):

   -46.0877 -22.4277 -22.3762 -22.3409  -6.7308  -6.0716  -5.9686  -5.1029
    -5.0603  -5.0382  -4.9636  -4.8971   3.3637   6.5129   6.8489   7.1873
     7.7646   8.1917   8.7149   9.2651   9.3975   9.8755  13.1611  13.7359
    13.8807  14.6320

          k = 0.1500 0.1500 0.4500 (  5084 PWs)   bands (ev):

   -46.0875 -22.4272 -22.3867 -22.3405  -6.6570  -6.0432  -5.9381  -5.1080
    -5.0549  -5.0307  -4.9799  -4.9007   3.2484   6.2600   6.8461   7.2339
     7.6690   8.3064   8.4670   9.3353   9.3831   9.9826  13.0982  13.9534
    14.1176  14.3866

          k = 0.1500 0.2500 0.2500 (  5081 PWs)   bands (ev):

   -46.0877 -22.4458 -22.3585 -22.3409  -6.7069  -6.1013  -5.9940  -5.0921
    -5.0766  -5.0311  -4.9149  -4.8964   3.4163   6.5952   6.7125   7.1278
     7.6778   7.9612   8.8940   9.2553   9.5034   9.7510  13.2912  13.5852
    13.7699  14.9442

          k = 0.1500 0.2500 0.3500 (  5080 PWs)   bands (ev):

   -46.0874 -22.4450 -22.3754 -22.3402  -6.5990  -6.0848  -5.9460  -5.0951
    -5.0661  -5.0207  -4.9178  -4.8771   3.2755   6.4501   6.6717   6.8943
     7.3843   8.0063   8.9180   9.0933   9.5733   9.7518  13.4107  13.7119
    14.0159  14.8987

          k = 0.1500 0.2500 0.4500 (  5077 PWs)   bands (ev):

   -46.0872 -22.4446 -22.3858 -22.3398  -6.5381  -6.0775  -5.9048  -5.0940
    -5.0566  -5.0172  -4.9119  -4.8754   3.1900   6.2504   6.6351   6.8282
     7.2965   8.1040   8.7267   9.1824   9.5095   9.7356  13.4166  13.8970
    14.2145  14.9296

          k = 0.1500 0.3500 0.3500 (  5081 PWs)   bands (ev):

[...]
    -4.9022  -4.8281  -4.7077  -4.5889   3.4061   6.3177   6.3578   6.8561
     7.4373   7.4776   9.0368   9.2489   9.5227   9.6031  13.2614  13.6545
    13.7580  15.2286

          k = 0.2500 0.2500 0.3500 (  5072 PWs)   bands (ev):

   -46.1574 -22.5001 -22.4551 -22.4376  -6.6531  -6.2787  -6.1332  -4.9003
    -4.8846  -4.7955  -4.6695  -4.5770   3.3007   6.1721   6.2208   6.5521
     7.1370   7.5075   8.9906   9.3428   9.4664   9.6305  13.4032  13.7088
    13.9450  15.4215

          k = 0.2500 0.2500 0.4500 (  5073 PWs)   bands (ev):

   -46.1572 -22.4996 -22.4655 -22.4372  -6.5860  -6.2401  -6.1613  -4.8976
    -4.8728  -4.7703  -4.6420  -4.5796   3.2315   6.0547   6.0925   6.4151
     7.0401   7.5803   8.8247   9.3769   9.4089   9.6762  13.5036  13.7845
    14.1243  15.6938

          k = 0.2500 0.3500 0.3500 (  5057 PWs)   bands (ev):

   -46.1571 -22.5171 -22.4544 -22.4369  -6.5971  -6.2861  -6.0465  -4.8902
    -4.8687  -4.7724  -4.6470  -4.5402   3.3542   5.9581   5.9812   6.3878
     6.7673   7.3141   8.7418   9.4077   9.4559   9.8204  13.5089  13.9178
    14.0929  15.6671

          k = 0.2500 0.3500 0.4500 (  5063 PWs)   bands (ev):

   -46.1569 -22.5166 -22.4648 -22.4365  -6.5595  -6.2424  -6.0639  -4.8850
    -4.8544  -4.7513  -4.6211  -4.5190   3.3359   5.8128   5.9229   6.1905
     6.6485   7.3547   8.4398   9.4095   9.4657   9.9345  13.7497  13.8734
    14.2294  16.0487

          k = 0.2500 0.4500 0.4500 (  5070 PWs)   bands (ev):

   -46.1567 -22.5270 -22.4643 -22.4361  -6.5583  -6.2443  -5.9847  -4.8813
    -4.8381  -4.7374  -4.6094  -4.4819   3.3931   5.7284   5.7447   6.0883
     6.4215   7.3042   8.1022   9.4324   9.4804  10.0929  13.8229  14.0705
    14.3216  16.2817

          k = 0.3500 0.3500 0.3500 (  5055 PWs)   bands (ev):

   -46.1568 -22.5163 -22.4537 -22.4536  -6.4702  -6.3036  -6.0907  -4.8613
    -4.8610  -4.7112  -4.5779  -4.5163   3.4158   5.7156   5.7962   6.1619
     6.7786   6.8166   8.1838   9.6862   9.7184   9.8633  13.6787  14.0389
    14.0655  16.0612

          k = 0.3500 0.3500 0.4500 (  5056 PWs)   bands (ev):

   -46.1566 -22.5158 -22.4640 -22.4533  -6.4174  -6.2814  -6.1221  -4.8574
    -4.8423  -4.6672  -4.5436  -4.4987   3.4357   5.5865   5.7570   5.9819
     6.5905   6.8356   7.7458   9.7825   9.7996   9.9504  13.8831  14.0003
    14.1938  16.4704

          k = 0.3500 0.4500 0.4500 (  5051 PWs)   bands (ev):

   -46.1563 -22.5262 -22.4636 -22.4528  -6.4234  -6.2980  -6.0399  -4.8479
    -4.8324  -4.6488  -4.5113  -4.4585   3.6278   5.4040   5.5562   5.8718
     6.4121   6.7351   7.3024   9.8278   9.8942  10.0961  14.0004  14.1450
    14.2754  16.7497

          k = 0.4500 0.4500 0.4500 (  5034 PWs)   bands (ev):

   -46.1561 -22.5257 -22.4631 -22.4631  -6.3418  -6.3256  -6.0720  -4.8319
    -4.8247  -4.5918  -4.4529  -4.4445   3.7644   5.3681   5.4255   5.7632
     6.4043   6.4533   6.6946  10.0051  10.0874  10.1039  14.1654  14.2462
    14.2511  17.1540

          k =-0.0500 0.1500 0.0500 (  5074 PWs)   bands (ev):

   -46.1592 -22.4859 -22.4127 -22.4126  -7.3130  -6.3841  -6.1717  -4.8962
    -4.8956  -4.8643  -4.8023  -4.6354   4.2665   6.6825   6.7035   7.3861
     8.5804   8.5902   9.0166   9.0183   9.2935   9.3584  12.4076  13.2036
    13.2341  14.6457

          k =-0.0500 0.2500 0.0500 (  5093 PWs)   bands (ev):

   -46.1589 -22.5033 -22.4120 -22.4120  -7.1864  -6.3477  -6.1117  -4.9082
    -4.9035  -4.8633  -4.7867  -4.6766   3.9098   6.7303   6.7436   7.1569
     8.3548   8.3677   8.9732   9.0692   9.3270   9.5550  12.4095  13.5886
    13.6285  14.6511

          k =-0.0500 0.3500 0.0500 (  5090 PWs)   bands (ev):

   -46.1586 -22.5205 -22.4114 -22.4113  -7.0580  -6.3093  -6.0482  -4.9200
    -4.9114  -4.8623  -4.7707  -4.7198   3.6176   6.5242   6.8037   6.9545
     8.1678   8.1820   8.9134   9.1801   9.3647  10.0194  12.4106  13.9599
    14.0075  14.2232

          k =-0.0500 0.4500 0.0500 (  5073 PWs)   bands (ev):

   -46.1583 -22.5312 -22.4110 -22.4110  -6.9779  -6.2846  -6.0069  -4.9272
    -4.9162  -4.8617  -4.7605  -4.7478   3.4604   6.2324   6.8400   6.9766
     8.0650   8.0690   8.8742   9.2324   9.3894  10.4707  12.4097  13.5262
    14.1826  14.2447

          k = 0.1500 0.0500 0.1500 (  5079 PWs)   bands (ev):

   -46.1590 -22.4744 -22.4233 -22.4231  -7.2192  -6.3641  -6.1908  -4.9170
    -4.8962  -4.8730  -4.7853  -4.6081   3.9981   6.6632   6.9064   7.3643
     8.3629   8.3928   8.8901   9.0607   9.1634   9.6441  12.8936  12.9862
    13.0530  15.2042

          k =-0.0500 0.2500 0.1500 (  5077 PWs)   bands (ev):

   -46.1587 -22.5028 -22.4225 -22.4116  -7.1093  -6.3382  -6.0979  -4.9104
    -4.8993  -4.8708  -4.7857  -4.6536   3.7598   6.5941   6.8056   7.2806
     8.0629   8.3023   8.7147   9.1038   9.1773   9.7705  12.7002  13.5667
    13.6443  14.9753

          k = 0.2500 0.0500 0.1500 (  5077 PWs)   bands (ev):

   -46.1587 -22.4737 -22.4402 -22.4225  -7.0764  -6.3301  -6.1861  -4.9341
    -4.8946  -4.8700  -4.7664  -4.6132   3.6805   6.6314   6.9446   7.2663
     8.0212   8.3238   8.7869   9.0621   9.1828   9.8123  13.0010  13.2274
    13.3349  15.2144

          k =-0.0500 0.3500 0.1500 (  5080 PWs)   bands (ev):

   -46.1583 -22.5200 -22.4218 -22.4110  -6.9904  -6.3070  -6.0297  -4.9209
    -4.8959  -4.8702  -4.7762  -4.6820   3.5140   6.3813   6.8126   7.0805
     7.9129   8.1567   8.6939   9.1241   9.1896  10.1197  12.6928  13.9272
    14.0183  14.4604

          k = 0.3500 0.0500 0.1500 (  5080 PWs)   bands (ev):

   -46.1583 -22.4731 -22.4571 -22.4219  -6.9248  -6.2933  -6.1895  -4.9455
    -4.8892  -4.8636  -4.7455  -4.6329   3.4193   6.3623   6.9774   7.3260
     7.7382   8.2712   8.5633   9.0939   9.2590  10.0864  13.0123  13.5914
    13.6891  14.9093

          k =-0.0500 0.4500 0.1500 (  5079 PWs)   bands (ev):

   -46.1581 -22.5306 -22.4214 -22.4106  -6.9182  -6.2866  -5.9838  -4.9275
    -4.8935  -4.8697  -4.7703  -4.7001   3.3768   6.1367   6.7936   7.0753
     7.8326   8.0673   8.7219   9.1170   9.2034  10.3889  12.6830  13.9506
    14.1527  14.2499

          k = 0.4500 0.0500 0.1500 (  5079 PWs)   bands (ev):

   -46.1581 -22.4726 -22.4676 -22.4215  -6.8253  -6.2623  -6.2038  -4.9496
    -4.8857  -4.8578  -4.7179  -4.6648   3.2806   6.1044   7.0811   7.3508
     7.7105   7.9713   8.5768   9.0832   9.3027  10.3334  13.0023  13.8262
    13.9418  14.4300

          k = 0.2500 0.0500 0.2500 (  5076 PWs)   bands (ev):

   -46.1583 -22.4731 -22.4396 -22.4393  -6.9415  -6.2956  -6.1962  -4.9368
    -4.8947  -4.8520  -4.7390  -4.6166   3.4170   6.6133   6.8368   7.2336
     7.8701   7.9817   8.7418   8.9744   9.3543   9.9099  13.2020  13.2939
    13.5547  15.3354

          k =-0.0500 0.3500 0.2500 (  5080 PWs)   bands (ev):

   -46.1580 -22.5192 -22.4387 -22.4103  -6.8910  -6.2878  -5.9980  -4.9187
    -4.8866  -4.8744  -4.7794  -4.6260   3.3546   6.2345   6.8886   7.0132
     7.7405   7.8620   8.3999   8.8739   9.4418  10.0761  13.1084  13.9882
    14.0758  14.8315

          k = 0.3500 0.0500 0.2500 (  5080 PWs)   bands (ev):

   -46.1580 -22.4724 -22.4563 -22.4387  -6.8028  -6.2604  -6.2075  -4.9375
    -4.8859  -4.8266  -4.7150  -4.6335   3.1832   6.3737   6.7650   7.2285
     7.6983   8.0051   8.4680   9.0247   9.4629   9.9710  13.2382  13.6166
    13.8075  15.1667

          k =-0.0500 0.4500 0.2500 (  5084 PWs)   bands (ev):

   -46.1578 -22.5297 -22.4383 -22.4099  -6.8384  -6.2670  -5.9426  -4.9250
    -4.8821  -4.8655  -4.7835  -4.6258   3.2461   6.0100   6.8129   7.0138
     7.6808   7.8261   8.3336   8.8936   9.4531  10.1590  13.0982  14.2068
    14.2760  14.6083

          k = 0.4500 0.0500 0.2500 (  5084 PWs)   bands (ev):

   -46.1578 -22.4719 -22.4668 -22.4383  -6.7154  -6.2342  -6.2187  -4.9366
    -4.8787  -4.8014  -4.6941  -4.6622   3.0521   6.1141   6.8457   7.1228
     7.7409   8.0146   8.2731   9.0885   9.4702  10.0082  13.2327  13.8595
    13.9920  14.9661

          k = 0.3500 0.0500 0.3500 (  5079 PWs)   bands (ev):

   -46.1577 -22.4718 -22.4555 -22.4555  -6.6885  -6.2263  -6.2145  -4.9304
    -4.8708  -4.7867  -4.6848  -4.6464   2.9615   6.2969   6.4930   7.2550
     7.6116   7.9077   8.4155   8.8480   9.7321   9.7496  13.5532  13.6634
    13.9536  15.2850

          k =-0.0500 0.4500 0.3500 (  5079 PWs)   bands (ev):

   -46.1575 -22.5288 -22.4550 -22.4093  -6.7875  -6.2069  -5.9015  -4.9234
    -4.8914  -4.8564  -4.7801  -4.5572   3.1243   5.9048   6.5812   7.0502
     7.3954   7.7580   8.2352   8.6592   9.5537  10.0252  13.4804  14.2340
    14.4033  15.1916

          k = 0.4500 0.0500 0.3500 (  5079 PWs)   bands (ev):

   -46.1574 -22.4712 -22.4659 -22.4550  -6.6260  -6.2131  -6.2003  -4.9265
    -4.8565  -4.7484  -4.6747  -4.6629   2.8317   6.0699   6.5038   7.2152
     7.5474   8.0583   8.2462   8.8151   9.5544   9.8747  13.6008  13.8756
    14.0640  15.2699

          k = 0.4500 0.0500 0.4500 (  5100 PWs)   bands (ev):

   -46.1572 -22.4707 -22.4655 -22.4654  -6.5879  -6.1863  -6.1832  -4.9214
    -4.8330  -4.7105  -4.6869  -4.6517   2.6996   5.9469   6.4024   7.3184
     7.3706   8.1661   8.2539   8.6283   9.2953  10.0343  13.8686  13.8922
    14.1190  15.2429

          k =-0.1500 0.2500 0.1500 (  5084 PWs)   bands (ev):

   -46.1585 -22.5024 -22.4222 -22.4220  -7.0311  -6.3302  -6.0940  -4.9151
    -4.8964  -4.8696  -4.7701  -4.6346   3.6590   6.5842   6.6130   7.3075
     7.9324   8.0121   8.7245   9.1292   9.3086   9.7454  12.8831  13.5325
    13.6637  15.2846

          k =-0.1500 0.3500 0.1500 (  5082 PWs)   bands (ev):

   -46.1581 -22.5195 -22.4215 -22.4214  -6.9193  -6.3088  -6.0229  -4.9242
    -4.8828  -4.8634  -4.7643  -4.6540   3.4607   6.3832   6.5178   7.0771
     7.8867   7.8960   8.5932   9.1627   9.3245  10.0171  12.8415  13.8869
    14.0164  14.6828

          k =-0.1500 0.4500 0.1500 (  5084 PWs)   bands (ev):

   -46.1579 -22.5301 -22.4210 -22.4210  -6.8529  -6.2954  -5.9731  -4.9288
    -4.8773  -4.8536  -4.7633  -4.6673   3.3447   6.1331   6.4711   7.0431
     7.8318   7.9068   8.5105   9.1808   9.3244  10.1819  12.8058  14.1142
    14.2329  14.3720

          k = 0.2500 0.1500 0.2500 (  5081 PWs)   bands (ev):

   -46.1581 -22.4837 -22.4392 -22.4389  -6.8747  -6.2982  -6.1681  -4.9239
    -4.8985  -4.8441  -4.7264  -4.6052   3.4194   6.5098   6.6553   6.9596
     7.6857   7.9099   8.9207   9.0555   9.4010   9.7549  13.2830  13.4145
    13.5896  15.3349

          k =-0.1500 0.3500 0.2500 (  5080 PWs)   bands (ev):

   -46.1578 -22.5187 -22.4383 -22.4208  -6.8137  -6.2984  -6.0101  -4.9180
    -4.8877  -4.8399  -4.7458  -4.6074   3.3665   6.2215   6.4807   6.8566
     7.3861   7.8099   8.7107   9.0776   9.4926   9.8619  13.1309  13.9136
    14.0351  15.0151

          k = 0.3500 0.1500 0.2500 (  5080 PWs)   bands (ev):

   -46.1578 -22.4830 -22.4559 -22.4383  -6.7385  -6.2684  -6.1872  -4.9227
    -4.8869  -4.8148  -4.6967  -4.6124   3.2312   6.3374   6.5687   6.7587
     7.4409   7.9701   8.7788   9.1195   9.4990   9.7465  13.3097  13.6293
    13.8372  15.2553

          k =-0.1500 0.4500 0.2500 (  5077 PWs)   bands (ev):

   -46.1576 -22.5292 -22.4378 -22.4203  -6.7636  -6.2888  -5.9526  -4.9204
    -4.8812  -4.8200  -4.7512  -4.6061   3.2843   6.0209   6.3871   6.7640
     7.3649   7.7920   8.6124   9.1112   9.5027   9.8792  13.1172  14.1398
    14.2212  14.9581

          k = 0.4500 0.1500 0.2500 (  5077 PWs)   bands (ev):

   -46.1576 -22.4825 -22.4663 -22.4379  -6.6543  -6.2381  -6.2092  -4.9208
    -4.8783  -4.7883  -4.6691  -4.6362   3.1209   6.1074   6.5261   6.7259
     7.3554   8.0748   8.6049   9.1780   9.5104   9.7215  13.3007  13.8130
    14.0397  15.2779

          k = 0.3500 0.1500 0.3500 (  5081 PWs)   bands (ev):

   -46.1574 -22.4823 -22.4552 -22.4551  -6.6154  -6.2454  -6.2104  -4.9142
    -4.8686  -4.7671  -4.6626  -4.6148   3.0599   6.2828   6.3839   6.6064
     7.1309   7.9424   8.8922   9.0019   9.4589   9.7385  13.5262  13.6981
    13.9581  15.5124

          k =-0.1500 0.4500 0.3500 (  5079 PWs)   bands (ev):

   -46.1572 -22.5283 -22.4546 -22.4197  -6.7069  -6.2406  -5.9323  -4.9138
    -4.8718  -4.8127  -4.7289  -4.5426   3.2180   5.8886   6.3911   6.5439
     6.7927   7.8428   8.7180   8.9354   9.2935   9.9490  13.4873  14.1331
    14.3081  15.5005

          k = 0.4500 0.1500 0.3500 (  5079 PWs)   bands (ev):

   -46.1572 -22.4818 -22.4655 -22.4546  -6.5464  -6.2300  -6.2170  -4.9097
    -4.8533  -4.7235  -4.6459  -4.6278   2.9526   6.0621   6.4137   6.5557
     6.9884   8.0039   8.7660   9.0533   9.2359   9.8618  13.6033  13.8396
    14.0877  15.7474

          k = 0.4500 0.1500 0.4500 (  5073 PWs)   bands (ev):

   -46.1570 -22.4812 -22.4650 -22.4650  -6.4973  -6.2138  -6.2133  -4.9044
    -4.8308  -4.6726  -4.6388  -4.6301   2.8435   5.9373   6.3746   6.6297
     6.7212   8.0212   8.7442   8.9564   9.0012  10.0295  13.8371  13.8712
    14.1481  15.8460

          k =-0.2500 0.3500 0.2500 (  5072 PWs)   bands (ev):

   -46.1575 -22.5179 -22.4377 -22.4375  -6.6945  -6.3069  -6.0275  -4.9033
    -4.8835  -4.8039  -4.6935  -4.5749   3.3702   6.1164   6.1776   6.5795
     7.1663   7.3816   8.9481   9.3180   9.5450   9.6433  13.2586  13.9477
    13.9661  15.3044

          k =-0.2500 0.4500 0.2500 (  5073 PWs)   bands (ev):

   -46.1572 -22.5284 -22.4372 -22.4371  -6.6530  -6.3098  -5.9650  -4.9029
    -4.8735  -4.7813  -4.6893  -4.5672   3.3370   5.9941   6.0370   6.3931
     7.1247   7.3476   8.8153   9.3452   9.5026   9.6973  13.2916  14.1288
    14.1553  15.4461

          k = 0.3500 0.2500 0.3500 (  5057 PWs)   bands (ev):

   -46.1571 -22.4993 -22.4545 -22.4544  -6.5209  -6.2752  -6.1754  -4.8875
    -4.8650  -4.7392  -4.6216  -4.5650   3.2306   6.0486   6.1035   6.2748
     6.8872   7.3183   8.7281   9.4779   9.4832   9.7603  13.5403  13.8252
    14.0034  15.7488

          k =-0.2500 0.4500 0.3500 (  5063 PWs)   bands (ev):

   -46.1569 -22.5276 -22.4539 -22.4365  -6.5767  -6.2898  -5.9764  -4.8877
    -4.8551  -4.7541  -4.6363  -4.5170   3.3759   5.8043   5.8997   6.1865
     6.6382   7.2732   8.4770   9.4250   9.4673   9.9305  13.5886  14.0905
    14.2294  15.9144

          k = 0.4500 0.2500 0.3500 (  5063 PWs)   bands (ev):

   -46.1569 -22.4988 -22.4648 -22.4540  -6.4470  -6.2541  -6.2102  -4.8826
    -4.8486  -4.6941  -4.5957  -4.5641   3.1731   5.9642   6.0546   6.1144
     6.7249   7.3368   8.4067   9.5040   9.5149   9.8658  13.6969  13.8656
    14.1321  16.1165

          k = 0.4500 0.2500 0.4500 (  5070 PWs)   bands (ev):

   -46.1567 -22.4983 -22.4643 -22.4643  -6.3597  -6.2588  -6.2431  -4.8767
    -4.8282  -4.6381  -4.5681  -4.5628   3.1164   5.9036   6.0425   6.0459
     6.4672   7.2995   8.0109   9.5457   9.5478  10.0220  13.8830  13.9303
    14.1808  16.4521

          k =-0.3500 0.4500 0.3500 (  5056 PWs)   bands (ev):

   -46.1566 -22.5268 -22.4533 -22.4532  -6.4584  -6.3206  -6.0161  -4.8589
    -4.8448  -4.6918  -4.5509  -4.4867   3.5355   5.5796   5.6178   5.9884
     6.5676   6.7981   7.8104   9.7149   9.8167   9.9712  13.8041  14.1351
    14.2138  16.3590

          k = 0.4500 0.3500 0.4500 (  5051 PWs)   bands (ev):

   -46.1563 -22.5153 -22.4636 -22.4636  -6.3241  -6.3010  -6.1637  -4.8490
    -4.8260  -4.6108  -4.4969  -4.4891   3.4694   5.5954   5.6422   5.8581
     6.4537   6.6965   7.2266   9.9203   9.9255  10.0174  14.0404  14.0963
    14.2059  16.8579

     the Fermi energy is    10.3838 ev

!    total energy              =    -364.96124649 Ry
     Harris-Foulkes estimate   =    -364.96124649 Ry
     estimated scf accuracy    <          1.0E-11 Ry

     The total energy is the sum of the following terms:

     one-electron contribution =     -86.33368441 Ry
     hartree contribution      =      72.56556547 Ry
     xc contribution           =     -85.88287010 Ry
     ewald contribution        =    -265.31631696 Ry
     smearing contrib. (-TS)   =       0.00605951 Ry

     convergence has been achieved in   8 iterations

     Forces acting on atoms (cartesian axes, Ry/au):

     atom    1 type  1   force =     0.00000000    0.01005101    0.00000000
     atom    2 type  2   force =     0.00000000   -0.00963945    0.00000000
     atom    3 type  3   force =     0.00000000   -0.00005846    0.00000000
     atom    4 type  3   force =     0.00000000   -0.00029464    0.00000000
     atom    5 type  3   force =     0.00000000   -0.00005846    0.00000000

     Total force =     0.000306     Total SCF correction =     0.000002


     Computing stress (Cartesian axis) and pressure

          total   stress  (Ry/bohr**3)                   (kbar)     P=   36.66
   0.00014627   0.00000000   0.00000000         21.52      0.00      0.00
   0.00000000   0.00045506   0.00000000          0.00     66.94      0.00
   0.00000000   0.00000000   0.00014627          0.00      0.00     21.52


     bfgs converged in  18 scf cycles and  17 bfgs steps
     (criteria: energy <  1.0E-04 Ry, force <  1.0E-03 Ry/Bohr)

     End of BFGS Geometry Optimization

     Final energy   =    -364.9612464874 Ry
Begin final coordinates

ATOMIC_POSITIONS (crystal)
Pb       0.000000000   0.000000000   0.000000000    0   0   0
Ti       0.500000000   0.548000000   0.500000000    0   0   0
O        0.500000000   0.604009061   0.000000000
O        0.500000000   0.095275493   0.500000000
O        0.000000000   0.604009061   0.500000000
End final coordinates



     Writing output data file PbTiO3.save/
 
     init_run     :      9.61s CPU     10.26s WALL (       1 calls)
     electrons    :   3788.74s CPU   3967.82s WALL (      18 calls)
     update_pot   :      4.87s CPU      5.15s WALL (      17 calls)
     forces       :     45.44s CPU     54.91s WALL (      18 calls)
     stress       :    203.35s CPU    228.39s WALL (      18 calls)

     Called by init_run:
     wfcinit      :      7.22s CPU      7.30s WALL (       1 calls)
     potinit      :      0.23s CPU      0.26s WALL (       1 calls)
     hinit0       :      1.31s CPU      1.34s WALL (       1 calls)

     Called by electrons:
     c_bands      :   3012.92s CPU   3035.21s WALL (     164 calls)
     sum_band     :    615.78s CPU    688.54s WALL (     164 calls)
     v_of_rho     :     37.18s CPU     39.10s WALL (     181 calls)
     newd         :    136.14s CPU    226.02s WALL (     181 calls)
     mix_rho      :      2.27s CPU      2.48s WALL (     164 calls)

     Called by c_bands:
     init_us_2    :     81.84s CPU     82.25s WALL (   27375 calls)
     cegterg      :   2783.91s CPU   2805.04s WALL (   12300 calls)

     Called by sum_band:
     sum_band:bec :      0.21s CPU      0.21s WALL (   12300 calls)
     addusdens    :    146.31s CPU    216.91s WALL (     164 calls)

     Called by *egterg:
     h_psi        :   2320.72s CPU   2325.60s WALL (   56348 calls)
     s_psi        :     72.79s CPU     73.09s WALL (   56348 calls)
     g_psi        :     27.34s CPU     27.45s WALL (   43973 calls)
     cdiaghg      :     78.78s CPU     92.27s WALL (   54923 calls)

     Called by h_psi:
     h_psi:pot    :   2311.42s CPU   2315.93s WALL (   56348 calls)
     h_psi:calbec :     71.96s CPU     72.12s WALL (   56348 calls)
     vloc_psi     :   2166.02s CPU   2170.27s WALL (   56348 calls)
     add_vuspsi   :     73.13s CPU     73.28s WALL (   56348 calls)

     General routines
     calbec       :    107.64s CPU    107.88s WALL (   75398 calls)
     fft          :      9.38s CPU      9.41s WALL (    2785 calls)
     ffts         :      0.37s CPU      0.38s WALL (     345 calls)
     fftw         :   2318.87s CPU   2323.43s WALL ( 2141390 calls)
     interpolate  :      0.99s CPU      1.07s WALL (     181 calls)
 
     Parallel routines
 
     PWSCF        :      1h 7m CPU      1h11m WALL

 
   This run was terminated on:  23:30:25  13May2020            

=------------------------------------------------------------------------------=
   JOB DONE.
=------------------------------------------------------------------------------=
