
     Program PWSCF v.6.4.1 starts on 15May2020 at  3: 0: 5 

     This program is part of the open-source Quantum ESPRESSO suite
     for quantum simulation of materials; please cite
         "P. Giannozzi et al., J. Phys.:Condens. Matter 21 395502 (2009);
         "P. Giannozzi et al., J. Phys.:Condens. Matter 29 465901 (2017);
          URL http://www.quantum-espresso.org", 
     in publications or presentations arising from this work. More details at
     http://www.quantum-espresso.org/quote

     Parallel version (MPI), running on     1 processors

     MPI processes distributed on     1 nodes
     Reading input from PTO_7.53_10_0.548.pw.in
Warning: card  &CELL ignored
Warning: card   CELL_DYNAMICS = 'BFGS', ignored
Warning: card  / ignored

     Current dimensions of program PWSCF are:
     Max number of different atomic species (ntypx) = 10
     Max number of k-points (npk) =  40000
     Max angular momentum in pseudopotentials (lmaxx) =  3
     Message from routine read_upf::
     Pseudo file Pb.pbe-dn-rrkjus_psl.0.2.2.UPF has been fixed on the fly.
To avoid this message in the future, permanently fix 
 your pseudo files following these instructions: 
https://gitlab.com/QEF/q-e/blob/master/upftools/how_to_fix_upf.md
     Message from routine read_upf::
     Pseudo file O.pbe-n-rrkjus_psl.0.1.UPF has been fixed on the fly.
To avoid this message in the future, permanently fix 
 your pseudo files following these instructions: 
https://gitlab.com/QEF/q-e/blob/master/upftools/how_to_fix_upf.md
               file Pb.pbe-dn-rrkjus_psl.0.2.2.UPF: wavefunction(s)  6S renormalized

     Subspace diagonalization in iterative solution of the eigenvalue problem:
     a serial algorithm will be used


     G-vector sticks info
     --------------------
     sticks:   dense  smooth     PW     G-vecs:    dense   smooth      PW
     Sum        3593    1449    421               163083    41347    6403



     bravais-lattice index     =            1
     lattice parameter (alat)  =       7.5300  a.u.
     unit-cell volume          =     426.9578 (a.u.)^3
     number of atoms/cell      =            5
     number of atomic types    =            3
     number of electrons       =        44.00
     number of Kohn-Sham states=           26
     kinetic-energy cutoff     =      80.0000  Ry
     charge density cutoff     =     800.0000  Ry
     convergence threshold     =      1.0E-08
     mixing beta               =       0.7000
     number of iterations used =            8  plain     mixing
     Exchange-correlation      = PBE ( 1  4  3  4 0 0)
     nstep                     =           50


     celldm(1)=   7.530000  celldm(2)=   0.000000  celldm(3)=   0.000000
     celldm(4)=   0.000000  celldm(5)=   0.000000  celldm(6)=   0.000000

     crystal axes: (cart. coord. in units of alat)
               a(1) = (   1.000000   0.000000   0.000000 )  
               a(2) = (   0.000000   1.000000   0.000000 )  
               a(3) = (   0.000000   0.000000   1.000000 )  

     reciprocal axes: (cart. coord. in units 2 pi/alat)
               b(1) = (  1.000000  0.000000  0.000000 )  
               b(2) = (  0.000000  1.000000  0.000000 )  
               b(3) = (  0.000000  0.000000  1.000000 )  


     PseudoPot. # 1 for Pb read from file:
     ./Pb.pbe-dn-rrkjus_psl.0.2.2.UPF
     MD5 check sum: 7afc420059c37d6888fc09c0f121e83f
     Pseudo is Ultrasoft + core correction, Zval = 14.0
     Generated using "atomic" code by A. Dal Corso v.5.0.2 svn rev. 9415
     Using radial grid of 1281 points,  6 beta functions with: 
                l(1) =   0
                l(2) =   0
                l(3) =   1
                l(4) =   1
                l(5) =   2
                l(6) =   2
     Q(r) pseudized with 0 coefficients 


     PseudoPot. # 2 for Ti read from file:
     ./Ti.pbe-sp-van_ak.UPF
     MD5 check sum: 8e4df49b7f0d34bbd5052bf3f5ea0213
     Pseudo is Ultrasoft, Zval = 12.0
     Generated by new atomic code, or converted to UPF format
     Using radial grid of  851 points,  6 beta functions with: 
                l(1) =   0
                l(2) =   0
                l(3) =   1
                l(4) =   1
                l(5) =   2
                l(6) =   2
     Q(r) pseudized with  8 coefficients,  rinner =    1.000   1.000   1.000
                                                       1.000   1.000

     PseudoPot. # 3 for O  read from file:
     ./O.pbe-n-rrkjus_psl.0.1.UPF
     MD5 check sum: e057bbcf3229fb5d8c36c0c92f9568b4
     Pseudo is Ultrasoft + core correction, Zval =  6.0
     Generated using "atomic" code by A. Dal Corso v.5.0.2 svn rev. 9415
     Using radial grid of 1095 points,  4 beta functions with: 
                l(1) =   0
                l(2) =   0
                l(3) =   1
                l(4) =   1
     Q(r) pseudized with 0 coefficients 


     atomic species   valence    mass     pseudopotential
        Pb            14.00   207.20000     Pb( 1.00)
        Ti            12.00    47.87000     Ti( 1.00)
        O              6.00    16.00000     O ( 1.00)

      8 Sym. Ops. (no inversion) found



   Cartesian axes

     site n.     atom                  positions (alat units)
         1           Pb  tau(   1) = (   0.0000000   0.0000000   0.0000000  )
         2           Ti  tau(   2) = (   0.5000000   0.5480000   0.5000000  )
         3           O   tau(   3) = (   0.5000000   0.5000000   0.0000000  )
         4           O   tau(   4) = (   0.5000000   0.0000000   0.5000000  )
         5           O   tau(   5) = (   0.0000000   0.5000000   0.5000000  )

     number of k points=    75  Marzari-Vanderbilt smearing, width (Ry)=  0.0250
                       cart. coord. in units 2pi/alat
        k(    1) = (   0.0500000   0.0500000   0.0500000), wk =   0.0160000
        k(    2) = (   0.0500000   0.0500000   0.1500000), wk =   0.0320000
        k(    3) = (   0.0500000   0.0500000   0.2500000), wk =   0.0320000
        k(    4) = (   0.0500000   0.0500000   0.3500000), wk =   0.0320000
        k(    5) = (   0.0500000   0.0500000   0.4500000), wk =   0.0320000
        k(    6) = (   0.0500000   0.1500000   0.1500000), wk =   0.0320000
        k(    7) = (   0.0500000   0.1500000   0.2500000), wk =   0.0320000
        k(    8) = (   0.0500000   0.1500000   0.3500000), wk =   0.0320000
        k(    9) = (   0.0500000   0.1500000   0.4500000), wk =   0.0320000
        k(   10) = (   0.0500000   0.2500000   0.2500000), wk =   0.0320000
        k(   11) = (   0.0500000   0.2500000   0.3500000), wk =   0.0320000
        k(   12) = (   0.0500000   0.2500000   0.4500000), wk =   0.0320000
        k(   13) = (   0.0500000   0.3500000   0.3500000), wk =   0.0320000
        k(   14) = (   0.0500000   0.3500000   0.4500000), wk =   0.0320000
        k(   15) = (   0.0500000   0.4500000   0.4500000), wk =   0.0320000
        k(   16) = (   0.1500000   0.1500000   0.1500000), wk =   0.0160000
        k(   17) = (   0.1500000   0.1500000   0.2500000), wk =   0.0320000
        k(   18) = (   0.1500000   0.1500000   0.3500000), wk =   0.0320000
        k(   19) = (   0.1500000   0.1500000   0.4500000), wk =   0.0320000
        k(   20) = (   0.1500000   0.2500000   0.2500000), wk =   0.0320000
        k(   21) = (   0.1500000   0.2500000   0.3500000), wk =   0.0320000
        k(   22) = (   0.1500000   0.2500000   0.4500000), wk =   0.0320000
        k(   23) = (   0.1500000   0.3500000   0.3500000), wk =   0.0320000
        k(   24) = (   0.1500000   0.3500000   0.4500000), wk =   0.0320000
        k(   25) = (   0.1500000   0.4500000   0.4500000), wk =   0.0320000
        k(   26) = (   0.2500000   0.2500000   0.2500000), wk =   0.0160000
        k(   27) = (   0.2500000   0.2500000   0.3500000), wk =   0.0320000
        k(   28) = (   0.2500000   0.2500000   0.4500000), wk =   0.0320000
        k(   29) = (   0.2500000   0.3500000   0.3500000), wk =   0.0320000
        k(   30) = (   0.2500000   0.3500000   0.4500000), wk =   0.0320000
        k(   31) = (   0.2500000   0.4500000   0.4500000), wk =   0.0320000
        k(   32) = (   0.3500000   0.3500000   0.3500000), wk =   0.0160000
        k(   33) = (   0.3500000   0.3500000   0.4500000), wk =   0.0320000
        k(   34) = (   0.3500000   0.4500000   0.4500000), wk =   0.0320000
        k(   35) = (   0.4500000   0.4500000   0.4500000), wk =   0.0160000
        k(   36) = (  -0.0500000   0.1500000   0.0500000), wk =   0.0160000
        k(   37) = (  -0.0500000   0.2500000   0.0500000), wk =   0.0160000
        k(   38) = (  -0.0500000   0.3500000   0.0500000), wk =   0.0160000
        k(   39) = (  -0.0500000   0.4500000   0.0500000), wk =   0.0160000
        k(   40) = (   0.1500000   0.0500000   0.1500000), wk =   0.0160000
        k(   41) = (  -0.0500000   0.2500000   0.1500000), wk =   0.0320000
        k(   42) = (   0.2500000   0.0500000   0.1500000), wk =   0.0320000
        k(   43) = (  -0.0500000   0.3500000   0.1500000), wk =   0.0320000
        k(   44) = (   0.3500000   0.0500000   0.1500000), wk =   0.0320000
        k(   45) = (  -0.0500000   0.4500000   0.1500000), wk =   0.0320000
        k(   46) = (   0.4500000   0.0500000   0.1500000), wk =   0.0320000
        k(   47) = (   0.2500000   0.0500000   0.2500000), wk =   0.0160000
        k(   48) = (  -0.0500000   0.3500000   0.2500000), wk =   0.0320000
        k(   49) = (   0.3500000   0.0500000   0.2500000), wk =   0.0320000
        k(   50) = (  -0.0500000   0.4500000   0.2500000), wk =   0.0320000
        k(   51) = (   0.4500000   0.0500000   0.2500000), wk =   0.0320000
        k(   52) = (   0.3500000   0.0500000   0.3500000), wk =   0.0160000
        k(   53) = (  -0.0500000   0.4500000   0.3500000), wk =   0.0320000
        k(   54) = (   0.4500000   0.0500000   0.3500000), wk =   0.0320000
        k(   55) = (   0.4500000   0.0500000   0.4500000), wk =   0.0160000
        k(   56) = (  -0.1500000   0.2500000   0.1500000), wk =   0.0160000
        k(   57) = (  -0.1500000   0.3500000   0.1500000), wk =   0.0160000
        k(   58) = (  -0.1500000   0.4500000   0.1500000), wk =   0.0160000
        k(   59) = (   0.2500000   0.1500000   0.2500000), wk =   0.0160000
        k(   60) = (  -0.1500000   0.3500000   0.2500000), wk =   0.0320000
        k(   61) = (   0.3500000   0.1500000   0.2500000), wk =   0.0320000
        k(   62) = (  -0.1500000   0.4500000   0.2500000), wk =   0.0320000
        k(   63) = (   0.4500000   0.1500000   0.2500000), wk =   0.0320000
        k(   64) = (   0.3500000   0.1500000   0.3500000), wk =   0.0160000
        k(   65) = (  -0.1500000   0.4500000   0.3500000), wk =   0.0320000
        k(   66) = (   0.4500000   0.1500000   0.3500000), wk =   0.0320000
        k(   67) = (   0.4500000   0.1500000   0.4500000), wk =   0.0160000
        k(   68) = (  -0.2500000   0.3500000   0.2500000), wk =   0.0160000
        k(   69) = (  -0.2500000   0.4500000   0.2500000), wk =   0.0160000
        k(   70) = (   0.3500000   0.2500000   0.3500000), wk =   0.0160000
        k(   71) = (  -0.2500000   0.4500000   0.3500000), wk =   0.0320000
        k(   72) = (   0.4500000   0.2500000   0.3500000), wk =   0.0320000
        k(   73) = (   0.4500000   0.2500000   0.4500000), wk =   0.0160000
        k(   74) = (  -0.3500000   0.4500000   0.3500000), wk =   0.0160000
        k(   75) = (   0.4500000   0.3500000   0.4500000), wk =   0.0160000

     Dense  grid:   163083 G-vectors     FFT dimensions: (  72,  72,  72)

     Smooth grid:    41347 G-vectors     FFT dimensions: (  45,  45,  45)

     Estimated max dynamical RAM per process >     771.07 MB

     Check: negative core charge=   -0.000005

     Initial potential from superposition of free atoms

     starting charge   42.99760, renormalised to   44.00000
     Starting wfcs are   31 randomized atomic wfcs

     total cpu time spent up to now is       16.4 secs

     Self-consistent Calculation

     iteration #  1     ecut=    80.00 Ry     beta= 0.70
     Davidson diagonalization with overlap
     ethr =  1.00E-02,  avg # of iterations =  2.0

     total cpu time spent up to now is       46.9 secs

     total energy              =    -364.39539310 Ry
     Harris-Foulkes estimate   =    -365.28688618 Ry
     estimated scf accuracy    <       1.11863339 Ry

     iteration #  2     ecut=    80.00 Ry     beta= 0.70
     Davidson diagonalization with overlap
     ethr =  2.54E-03,  avg # of iterations =  4.0

     total cpu time spent up to now is       93.1 secs

     total energy              =    -363.25370583 Ry
     Harris-Foulkes estimate   =    -365.80063712 Ry
     estimated scf accuracy    <       9.73940184 Ry

     iteration #  3     ecut=    80.00 Ry     beta= 0.70
     Davidson diagonalization with overlap
     ethr =  2.54E-03,  avg # of iterations =  5.0

     total cpu time spent up to now is      139.8 secs

     total energy              =    -364.93031565 Ry
     Harris-Foulkes estimate   =    -365.10383971 Ry
     estimated scf accuracy    <       0.47192686 Ry

     iteration #  4     ecut=    80.00 Ry     beta= 0.70
     Davidson diagonalization with overlap
     ethr =  1.07E-03,  avg # of iterations =  2.4

     total cpu time spent up to now is      169.9 secs

     total energy              =    -364.91398001 Ry
     Harris-Foulkes estimate   =    -364.96486963 Ry
     estimated scf accuracy    <       0.18123593 Ry

     iteration #  5     ecut=    80.00 Ry     beta= 0.70
     Davidson diagonalization with overlap
     ethr =  4.12E-04,  avg # of iterations =  4.6

     total cpu time spent up to now is      209.1 secs

     total energy              =    -364.95385303 Ry
     Harris-Foulkes estimate   =    -364.95410784 Ry
     estimated scf accuracy    <       0.00115064 Ry

     iteration #  6     ecut=    80.00 Ry     beta= 0.70
     Davidson diagonalization with overlap
     c_bands:  1 eigenvalues not converged
     c_bands:  1 eigenvalues not converged
     ethr =  2.62E-06,  avg # of iterations =  5.4

     total cpu time spent up to now is      261.8 secs

     total energy              =    -364.95429924 Ry
     Harris-Foulkes estimate   =    -364.95469038 Ry
     estimated scf accuracy    <       0.00173317 Ry

     iteration #  7     ecut=    80.00 Ry     beta= 0.70
     Davidson diagonalization with overlap
     ethr =  2.62E-06,  avg # of iterations =  2.7

     total cpu time spent up to now is      293.3 secs

     total energy              =    -364.95424829 Ry
     Harris-Foulkes estimate   =    -364.95449784 Ry
     estimated scf accuracy    <       0.00067709 Ry

     iteration #  8     ecut=    80.00 Ry     beta= 0.70
     Davidson diagonalization with overlap
     ethr =  1.54E-06,  avg # of iterations =  3.5

     total cpu time spent up to now is      328.0 secs

     total energy              =    -364.95437751 Ry
     Harris-Foulkes estimate   =    -364.95438878 Ry
     estimated scf accuracy    <       0.00004161 Ry

     iteration #  9     ecut=    80.00 Ry     beta= 0.70
     Davidson diagonalization with overlap
     ethr =  9.46E-08,  avg # of iterations =  2.8

     total cpu time spent up to now is      363.8 secs

     total energy              =    -364.95437447 Ry
     Harris-Foulkes estimate   =    -364.95438590 Ry
     estimated scf accuracy    <       0.00003010 Ry

     iteration # 10     ecut=    80.00 Ry     beta= 0.70
     Davidson diagonalization with overlap
     ethr =  6.84E-08,  avg # of iterations =  2.2

     total cpu time spent up to now is      394.5 secs

     total energy              =    -364.95437818 Ry
     Harris-Foulkes estimate   =    -364.95437853 Ry
     estimated scf accuracy    <       0.00000132 Ry

     iteration # 11     ecut=    80.00 Ry     beta= 0.70
     Davidson diagonalization with overlap
     ethr =  3.00E-09,  avg # of iterations =  4.0

     total cpu time spent up to now is      437.4 secs

     total energy              =    -364.95437899 Ry
     Harris-Foulkes estimate   =    -364.95437901 Ry
     estimated scf accuracy    <       0.00000011 Ry

     iteration # 12     ecut=    80.00 Ry     beta= 0.70
     Davidson diagonalization with overlap
     ethr =  2.50E-10,  avg # of iterations =  2.0

     total cpu time spent up to now is      467.3 secs

     total energy              =    -364.95437898 Ry
     Harris-Foulkes estimate   =    -364.95437900 Ry
     estimated scf accuracy    <       0.00000004 Ry

     iteration # 13     ecut=    80.00 Ry     beta= 0.70
     Davidson diagonalization with overlap
     ethr =  9.81E-11,  avg # of iterations =  3.0

     total cpu time spent up to now is      500.7 secs

     End of self-consistent calculation

          k = 0.0500 0.0500 0.0500 (  5146 PWs)   bands (ev):

   -46.3652 -22.6968 -22.5989 -22.5988  -7.3929  -6.4431  -6.3238  -5.3395
    -5.3216  -5.3213  -5.1843  -5.1660   4.1788   6.6213   6.6665   6.7985
     8.5279   8.5538   8.9524   9.0140   9.2740   9.2996  12.2355  12.7102
    12.7196  14.3688

          k = 0.0500 0.0500 0.1500 (  5151 PWs)   bands (ev):

   -46.3650 -22.6964 -22.6086 -22.5985  -7.3155  -6.4094  -6.2957  -5.3466
    -5.3288  -5.3210  -5.2133  -5.1661   3.9020   6.6751   6.7491   6.9604
     8.3218   8.5060   8.8715   8.9533   9.1431   9.2697  12.5442  12.7199
    12.7981  14.5712

          k = 0.0500 0.0500 0.2500 (  5166 PWs)   bands (ev):

   -46.3647 -22.6958 -22.6245 -22.5979  -7.1864  -6.3497  -6.2514  -5.3583
    -5.3408  -5.3202  -5.2684  -5.1627   3.5519   6.6761   6.8569   6.9948
     8.2102   8.3154   8.7806   8.8777   9.0640   9.3293  12.7205  12.9939
    13.1075  14.5757

          k = 0.0500 0.0500 0.3500 (  5153 PWs)   bands (ev):

   -46.3644 -22.6952 -22.6402 -22.5973  -7.0520  -6.2795  -6.2109  -5.3751
    -5.3549  -5.3229  -5.3194  -5.1611   3.2744   6.3393   7.0394   7.1633
     7.9556   8.0726   8.7225   8.7973   9.1593   9.6784  12.7212  13.4000
    13.4925  13.9426

          k = 0.0500 0.0500 0.4500 (  5155 PWs)   bands (ev):

   -46.3642 -22.6948 -22.6499 -22.5970  -6.9657  -6.2219  -6.1956  -5.4006
    -5.3657  -5.3436  -5.3189  -5.1613   3.1288   6.0712   7.2352   7.4154
     7.6766   7.7705   8.7104   8.7727   9.2126  10.0985  12.7051  13.2471
    13.6400  13.7593

          k = 0.0500 0.1500 0.1500 (  5164 PWs)   bands (ev):

   -46.3648 -22.7065 -22.6083 -22.5981  -7.2248  -6.3905  -6.2686  -5.3466
    -5.3389  -5.3274  -5.2051  -5.1875   3.6923   6.6311   6.7350   7.1191
     8.1028   8.3311   8.7190   9.0091   9.1031   9.3624  12.5445  12.9598
    13.0201  14.6709

          k = 0.0500 0.1500 0.2500 (  5157 PWs)   bands (ev):

   -46.3645 -22.7059 -22.6240 -22.5975  -7.1001  -6.3384  -6.2319  -5.3615
    -5.3481  -5.3269  -5.2364  -5.1788   3.4119   6.5865   6.8539   7.0659
     7.9586   8.1747   8.6023   8.8473   9.0551   9.5073  12.9392  13.0129
    13.2742  14.7153

          k = 0.0500 0.1500 0.3500 (  5164 PWs)   bands (ev):

   -46.3642 -22.7052 -22.6397 -22.5970  -6.9722  -6.2840  -6.1923  -5.3792
    -5.3571  -5.3265  -5.2628  -5.1765   3.1749   6.3239   6.9654   7.1296
     7.7249   8.0260   8.5413   8.8319   9.0357   9.7324  12.9534  13.3940
    13.6083  14.1055

          k = 0.0500 0.1500 0.4500 (  5159 PWs)   bands (ev):

   -46.3640 -22.7048 -22.6494 -22.5966  -6.8916  -6.2496  -6.1652  -5.3933
    -5.3653  -5.3262  -5.2712  -5.1799   3.0463   6.0738   7.0875   7.2872
     7.5484   7.7795   8.5684   8.9006   9.0056   9.9134  12.9339  13.6154
    13.6459  13.8472

          k = 0.0500 0.2500 0.2500 (  5159 PWs)   bands (ev):

   -46.3642 -22.7220 -22.6233 -22.5969  -6.9583  -6.3243  -6.1905  -5.3653
    -5.3526  -5.3338  -5.2144  -5.1910   3.1987   6.4515   6.8529   6.9834
     7.7444   7.9067   8.3789   8.8367   9.2245   9.6490  12.9748  13.3378
    13.5401  14.6696

          k = 0.0500 0.2500 0.3500 (  5159 PWs)   bands (ev):

   -46.3639 -22.7213 -22.6390 -22.5963  -6.8503  -6.2908  -6.1415  -5.3747
    -5.3561  -5.3351  -5.2245  -5.1702   3.0165   6.2816   6.7387   7.0667
     7.5401   7.8755   8.2925   8.6468   9.3259   9.6499  13.3011  13.3972
    13.7892  14.3947

          k = 0.0500 0.2500 0.4500 (  5161 PWs)   bands (ev):

   -46.3637 -22.7209 -22.6486 -22.5960  -6.7877  -6.2697  -6.1023  -5.3806
    -5.3637  -5.3363  -5.2180  -5.1668   2.9128   6.0672   6.7620   7.0786
     7.4377   7.8903   8.2266   8.6372   9.3384   9.6137  13.3105  13.6089
    13.9798  14.2126

          k = 0.0500 0.3500 0.3500 (  5166 PWs)   bands (ev):

   -46.3635 -22.7374 -22.6382 -22.5957  -6.7493  -6.2662  -6.0830  -5.3737
    -5.3590  -5.3372  -5.2479  -5.1132   2.8627   6.0904   6.4947   7.0554
     7.4652   7.7327   8.1742   8.5986   9.2819   9.7059  13.3511  13.6925
    13.9758  14.7041

          k = 0.0500 0.3500 0.4500 (  5173 PWs)   bands (ev):

   -46.3634 -22.7369 -22.6479 -22.5954  -6.7204  -6.2357  -6.0320  -5.3746
    -5.3624  -5.3403  -5.2558  -5.0798   2.7805   5.9834   6.3569   7.1323
     7.2798   7.9121   8.0914   8.4707   9.0801   9.7773  13.5800  13.6878
    14.1352  14.7577

          k = 0.0500 0.4500 0.4500 (  5177 PWs)   bands (ev):

   -46.3632 -22.7467 -22.6474 -22.5950  -6.7018  -6.1833  -5.9838  -5.3773
    -5.3618  -5.3399  -5.2807  -5.0301   2.6996   5.7951   6.2505   7.1082
     7.2725   7.8511   8.1421   8.4041   8.7624   9.9497  13.5632  13.9158
    14.2421  15.1083

          k = 0.1500 0.1500 0.1500 (  5164 PWs)   bands (ev):

   -46.3646 -22.7061 -22.6080 -22.6078  -7.1528  -6.3661  -6.2470  -5.3543
    -5.3441  -5.3268  -5.2037  -5.1876   3.5516   6.6054   6.6577   7.2230
     7.9576   8.1078   8.6786   9.0731   9.2129   9.2348  12.7626  12.9994
    13.0369  15.1471

          k = 0.1500 0.1500 0.2500 (  5155 PWs)   bands (ev):

   -46.3643 -22.7055 -22.6236 -22.6073  -7.0365  -6.3241  -6.2107  -5.3673
    -5.3456  -5.3232  -5.2196  -5.1791   3.3377   6.5490   6.6551   7.0860
     7.7471   7.9170   8.7123   8.9857   9.1598   9.4195  12.9621  13.1305
    13.2698  14.8121

          k = 0.1500 0.1500 0.3500 (  5162 PWs)   bands (ev):

   -46.3640 -22.7048 -22.6393 -22.6067  -6.9216  -6.2784  -6.1714  -5.3790
    -5.3387  -5.3171  -5.2420  -5.1766   3.1423   6.3238   6.6666   6.9849
     7.5453   7.9608   8.4935   9.0175   9.1692   9.6115  12.9086  13.4443
    13.5988  14.3157

          k = 0.1500 0.1500 0.4500 (  5168 PWs)   bands (ev):

   -46.3638 -22.7044 -22.6490 -22.6063  -6.8523  -6.2483  -6.1443  -5.3837
    -5.3334  -5.3103  -5.2573  -5.1810   3.0316   6.0792   6.6712   7.0308
     7.4473   8.0730   8.2528   9.0927   9.1511   9.7059  12.8446  13.6542
    13.8296  14.0771

          k = 0.1500 0.2500 0.2500 (  5161 PWs)   bands (ev):

   -46.3640 -22.7216 -22.6230 -22.6066  -6.8928  -6.3157  -6.1937  -5.3694
    -5.3547  -5.3098  -5.1961  -5.1737   3.1929   6.4009   6.5247   6.9161
     7.4730   7.7396   8.6337   9.0390   9.2690   9.5074  13.0096  13.3219
    13.4957  14.6240

          k = 0.1500 0.2500 0.3500 (  5155 PWs)   bands (ev):

   -46.3637 -22.7209 -22.6386 -22.6060  -6.7909  -6.2983  -6.1509  -5.3721
    -5.3444  -5.3002  -5.1982  -5.1548   3.0604   6.2583   6.4908   6.6986
     7.1770   7.7837   8.6794   8.8593   9.3225   9.5126  13.1428  13.4267
    13.7318  14.5805

          k = 0.1500 0.2500 0.4500 (  5156 PWs)   bands (ev):

   -46.3635 -22.7205 -22.6482 -22.6057  -6.7332  -6.2914  -6.1128  -5.3709
    -5.3349  -5.2975  -5.1916  -5.1533   2.9796   6.0661   6.4649   6.6336
     7.0816   7.8803   8.5052   8.9404   9.2423   9.5024  13.1552  13.5989
    13.9248  14.6087

          k = 0.1500 0.3500 0.3500 (  5157 PWs)   bands (ev):

   -46.3634 -22.7369 -22.6378 -22.6054  -6.6777  -6.2925  -6.1278  -5.3692
    -5.3379  -5.2793  -5.2055  -5.0977   2.9651   6.0598   6.3989   6.4713
     6.9042   7.7520   8.5272   8.8880   9.1599   9.6654  13.2680  13.6035
    13.8951  14.8794

          k = 0.1500 0.3500 0.4500 (  5160 PWs)   bands (ev):

   -46.3632 -22.7365 -22.6474 -22.6050  -6.6483  -6.2841  -6.0814  -5.3651
    -5.3196  -5.2837  -5.2067  -5.0646   2.9125   5.9695   6.2871   6.4592
     6.7017   7.8229   8.4640   8.7966   8.9610   9.7674  13.4996  13.5976
    14.0423  15.0956

          k = 0.1500 0.4500 0.4500 (  5150 PWs)   bands (ev):

   -46.3630 -22.7463 -22.6470 -22.6046  -6.6245  -6.2439  -6.0628  -5.3627
    -5.3015  -5.2677  -5.2292  -5.0135   2.8642   5.7775   6.2083   6.4440
     6.5822   7.8237   8.2021   8.7023   8.9202   9.9316  13.5499  13.7953
    14.1396  15.4288

          k = 0.2500 0.2500 0.2500 (  5166 PWs)   bands (ev):

   -46.3637 -22.7210 -22.6225 -22.6222  -6.7954  -6.2991  -6.1907  -5.3594
    -5.3549  -5.2795  -5.1733  -5.1480   3.1669   6.2314   6.3136   6.7608
     7.2493   7.3236   8.7947   9.2587   9.2895   9.4275  13.0149  13.4630
    13.4721  14.6530

          k = 0.2500 0.2500 0.3500 (  5153 PWs)   bands (ev):

   -46.3634 -22.7203 -22.6379 -22.6217  -6.7143  -6.2864  -6.1644  -5.3539
    -5.3396  -5.2441  -5.1560  -5.1301   3.1211   6.1034   6.1729   6.4537
     6.9768   7.2875   8.6514   9.2092   9.3190   9.5666  13.0902  13.5152
    13.7160  14.8487

          k = 0.2500 0.2500 0.4500 (  5140 PWs)   bands (ev):

   -46.3632 -22.7199 -22.6475 -22.6213  -6.6747  -6.2845  -6.1300  -5.3499
    -5.3281  -5.2104  -5.1507  -5.1263   3.0846   6.0109   6.0722   6.2620
     6.9071   7.3283   8.4272   9.2355   9.2760   9.6243  13.1982  13.5962
    13.9060  15.0893

          k = 0.2500 0.3500 0.3500 (  5149 PWs)   bands (ev):

   -46.3630 -22.7363 -22.6372 -22.6210  -6.5766  -6.3154  -6.1879  -5.3473
    -5.3217  -5.2049  -5.1305  -5.0684   3.1427   5.8606   6.0103   6.2359
     6.6736   7.1747   8.1990   9.2853   9.4819   9.6608  13.2378  13.6515
    13.8453  15.1757

          k = 0.2500 0.3500 0.4500 (  5156 PWs)   bands (ev):

   -46.3628 -22.7358 -22.6468 -22.6206  -6.5489  -6.3306  -6.1488  -5.3409
    -5.3062  -5.1798  -5.1180  -5.0358   3.1569   5.8492   5.8926   6.0488
     6.4883   7.2013   7.8476   9.3043   9.4716   9.7711  13.4768  13.6358
    13.9865  15.5094

          k = 0.2500 0.4500 0.4500 (  5156 PWs)   bands (ev):

   -46.3627 -22.7457 -22.6463 -22.6202  -6.5005  -6.3236  -6.1607  -5.3370
    -5.2893  -5.1596  -5.0998  -4.9824   3.1882   5.6628   5.8871   5.9495
     6.3082   7.1742   7.3946   9.3002   9.5170   9.9144  13.6095  13.7713
    14.0752  15.8411

          k = 0.3500 0.3500 0.3500 (  5151 PWs)   bands (ev):

   -46.3627 -22.7356 -22.6366 -22.6365  -6.5202  -6.3011  -6.2256  -5.3246
    -5.3108  -5.1337  -5.0624  -5.0322   3.3339   5.6079   5.7127   6.0881
     6.6185   6.6881   7.5768   9.5551   9.6539   9.7954  13.4008  13.8196
    13.8212  15.5388

          k = 0.3500 0.3500 0.4500 (  5151 PWs)   bands (ev):

   -46.3625 -22.7352 -22.6461 -22.6362  -6.5144  -6.3008  -6.2061  -5.3148
    -5.3006  -5.0843  -5.0338  -5.0021   3.4557   5.5125   5.5668   5.9285
     6.4553   6.6659   7.1000   9.6113   9.7258   9.9091  13.6266  13.7756
    13.9756  15.9118

          k = 0.3500 0.4500 0.4500 (  5148 PWs)   bands (ev):

   -46.3623 -22.7450 -22.6457 -22.6358  -6.4132  -6.3538  -6.2390  -5.3116
    -5.2855  -5.0575  -4.9866  -4.9447   3.6483   5.3497   5.5054   5.7721
     6.2709   6.4885   6.6383   9.7045   9.8878   9.9130  13.7792  13.8882
    14.0456  16.2694

          k = 0.4500 0.4500 0.4500 (  5142 PWs)   bands (ev):

   -46.3621 -22.7446 -22.6453 -22.6453  -6.4395  -6.2918  -6.2779  -5.2974
    -5.2820  -4.9972  -4.9231  -4.9170   4.1278   5.1754   5.2577   5.6822
     5.7492   6.2570   6.3838   9.8851   9.8984  10.0679  13.9494  14.0212
    14.0249  16.6184

          k =-0.0500 0.1500 0.0500 (  5151 PWs)   bands (ev):

   -46.3650 -22.7069 -22.5985 -22.5984  -7.3003  -6.4217  -6.2903  -5.3390
    -5.3300  -5.3276  -5.2009  -5.1809   3.8948   6.6665   6.6697   6.9669
     8.3469   8.3706   8.8708   8.9389   9.3030   9.3272  12.2373  12.9493
    12.9675  14.3712

          k =-0.0500 0.2500 0.0500 (  5166 PWs)   bands (ev):

   -46.3647 -22.7232 -22.5979 -22.5979  -7.1416  -6.3917  -6.2307  -5.3457
    -5.3383  -5.3365  -5.2606  -5.1772   3.5308   6.6225   6.7522   6.9079
     8.1016   8.1234   8.8887   8.9799   9.3761   9.4321  12.2402  13.3196
    13.3460  14.3757

          k =-0.0500 0.3500 0.0500 (  5153 PWs)   bands (ev):

   -46.3644 -22.7393 -22.5973 -22.5973  -6.9671  -6.3715  -6.1619  -5.3735
    -5.3446  -5.3372  -5.3175  -5.1759   3.2382   6.2494   6.8435   6.9699
     7.8824   7.8860   8.8276   9.2174   9.4289   9.7860  12.2420  13.6757
    13.7082  14.0286

          k =-0.0500 0.4500 0.0500 (  5155 PWs)   bands (ev):

   -46.3642 -22.7493 -22.5969 -22.5969  -6.8458  -6.3693  -6.1123  -5.4103
    -5.3488  -5.3400  -5.3367  -5.1765   3.0827   5.9530   6.9075   7.0664
     7.7217   7.7508   8.7880   9.3110   9.4637  10.2215  12.2404  13.3030
    13.8895  13.9302

          k = 0.1500 0.0500 0.1500 (  5164 PWs)   bands (ev):

   -46.3648 -22.6961 -22.6084 -22.6081  -7.2426  -6.3818  -6.2662  -5.3535
    -5.3292  -5.3269  -5.2149  -5.1797   3.7016   6.6279   6.8150   7.0995
     8.1410   8.2892   8.7367   8.9909   9.1758   9.2813  12.7390  12.8084
    12.8328  14.9134

          k =-0.0500 0.2500 0.1500 (  5157 PWs)   bands (ev):

   -46.3645 -22.7227 -22.6076 -22.5975  -7.0710  -6.3639  -6.2203  -5.3575
    -5.3453  -5.3345  -5.2281  -5.1916   3.3984   6.5260   6.7838   7.0490
     7.8529   8.1079   8.6228   9.0401   9.1640   9.5567  12.5430  13.3233
    13.3708  14.6911

          k = 0.2500 0.0500 0.1500 (  5157 PWs)   bands (ev):

   -46.3645 -22.6955 -22.6241 -22.6077  -7.1238  -6.3306  -6.2190  -5.3632
    -5.3377  -5.3270  -5.2447  -5.1810   3.4222   6.6113   6.8598   7.0730
     7.9422   8.0453   8.6740   8.9673   9.1695   9.3968  12.7839  13.0865
    13.1754  14.9281

          k =-0.0500 0.3500 0.1500 (  5164 PWs)   bands (ev):

   -46.3642 -22.7389 -22.6070 -22.5969  -6.9055  -6.3437  -6.1660  -5.3814
    -5.3449  -5.3398  -5.2587  -5.1899   3.1465   6.2092   6.7931   7.0604
     7.6540   7.9078   8.7086   9.0292   9.2278   9.8388  12.5353  13.6668
    13.7136  14.2074

          k = 0.3500 0.0500 0.1500 (  5164 PWs)   bands (ev):

   -46.3642 -22.6949 -22.6398 -22.6071  -7.0051  -6.2654  -6.1761  -5.3773
    -5.3426  -5.3265  -5.2827  -5.1791   3.1849   6.3422   6.8951   7.1849
     7.6883   8.0336   8.3938   9.0176   9.1884   9.6864  12.7635  13.4567
    13.5380  14.1620

          k =-0.0500 0.4500 0.1500 (  5159 PWs)   bands (ev):

   -46.3640 -22.7488 -22.6066 -22.5965  -6.7943  -6.3366  -6.1288  -5.4030
    -5.3456  -5.3436  -5.2690  -5.1935   3.0079   5.9304   6.8011   7.1558
     7.5296   7.7680   8.8090   9.0072   9.2680  10.0574  12.5219  13.6842
    13.8993  13.9488

          k = 0.4500 0.0500 0.1500 (  5159 PWs)   bands (ev):

   -46.3640 -22.6945 -22.6494 -22.6067  -6.9325  -6.2076  -6.1602  -5.3921
    -5.3457  -5.3262  -5.3011  -5.1808   3.0557   6.0790   7.0079   7.2669
     7.6270   7.8536   8.3021   9.0081   9.2238   9.9417  12.7194  13.6693
    13.7018  13.7829

          k = 0.2500 0.0500 0.2500 (  5159 PWs)   bands (ev):

   -46.3642 -22.6949 -22.6236 -22.6232  -7.0285  -6.2871  -6.1661  -5.3624
    -5.3399  -5.3319  -5.2192  -5.2081   3.2240   6.5712   6.7849   7.0785
     7.6321   7.7564   8.7343   8.7884   9.3771   9.4424  13.0113  13.1426
    13.4299  14.7768

          k =-0.0500 0.3500 0.2500 (  5159 PWs)   bands (ev):

   -46.3639 -22.7381 -22.6227 -22.5963  -6.8170  -6.3049  -6.1426  -5.3759
    -5.3546  -5.3376  -5.2274  -5.1724   3.0016   6.1556   6.7636   6.9780
     7.5669   7.8270   8.2645   8.8851   9.2796   9.7525  12.9618  13.6937
    13.7961  14.4835

          k = 0.3500 0.0500 0.2500 (  5159 PWs)   bands (ev):

   -46.3639 -22.6943 -22.6390 -22.6227  -6.9442  -6.2195  -6.1162  -5.3673
    -5.3417  -5.3330  -5.2316  -5.2014   3.0408   6.3477   6.6972   7.0765
     7.4672   7.7426   8.4049   8.8842   9.3739   9.6343  13.0341  13.4628
    13.6990  14.4576

          k =-0.0500 0.4500 0.2500 (  5161 PWs)   bands (ev):

   -46.3637 -22.7480 -22.6222 -22.5959  -6.7335  -6.2827  -6.1123  -5.3888
    -5.3541  -5.3433  -5.2273  -5.1651   2.8879   5.8910   6.7504   6.9636
     7.5155   7.7658   8.2795   8.9297   9.2466   9.7994  12.9504  13.9101
    13.9462  14.3736

          k = 0.4500 0.0500 0.2500 (  5161 PWs)   bands (ev):

   -46.3637 -22.6939 -22.6487 -22.6223  -6.8992  -6.1538  -6.0957  -5.3761
    -5.3434  -5.3365  -5.2246  -5.2063   2.9355   6.0838   6.7854   6.9474
     7.5091   7.8638   8.0902   8.9702   9.3005   9.7582  13.0119  13.7105
    13.8822  14.2561

          k = 0.3500 0.0500 0.3500 (  5166 PWs)   bands (ev):

   -46.3635 -22.6936 -22.6385 -22.6382  -6.9037  -6.1392  -6.0547  -5.3620
    -5.3465  -5.3309  -5.2495  -5.1627   2.8994   6.2706   6.4462   7.0304
     7.2003   7.7687   8.4317   8.6249   9.3029   9.7814  13.3587  13.5011
    13.8825  14.7050

          k =-0.0500 0.4500 0.3500 (  5173 PWs)   bands (ev):

   -46.3634 -22.7472 -22.6378 -22.5953  -6.7051  -6.2240  -6.0455  -5.3792
    -5.3599  -5.3410  -5.2604  -5.0786   2.7704   5.8446   6.4606   6.9912
     7.4748   7.7210   8.1088   8.6197   9.0690   9.8262  13.3418  13.9170
    14.1084  14.9042

          k = 0.4500 0.0500 0.3500 (  5173 PWs)   bands (ev):

   -46.3634 -22.6932 -22.6479 -22.6379  -6.8883  -6.0637  -6.0240  -5.3647
    -5.3446  -5.3379  -5.2612  -5.1345   2.8142   6.0400   6.4560   6.9084
     7.1703   7.9349   8.1950   8.6445   9.1209   9.9252  13.4110  13.7057
    14.0141  14.7908

          k = 0.4500 0.0500 0.4500 (  5177 PWs)   bands (ev):

   -46.3632 -22.6929 -22.6475 -22.6475  -6.8902  -5.9901  -5.9773  -5.3636
    -5.3422  -5.3374  -5.2903  -5.0904   2.7393   5.9189   6.3429   6.9388
     6.9582   8.0834   8.2644   8.3897   8.8797  10.0943  13.6843  13.7111
    14.0992  15.0433

          k =-0.1500 0.2500 0.1500 (  5155 PWs)   bands (ev):

   -46.3643 -22.7223 -22.6073 -22.6072  -7.0017  -6.3432  -6.2149  -5.3657
    -5.3530  -5.3215  -5.2042  -5.1924   3.3226   6.5215   6.5555   7.0972
     7.7621   7.9267   8.5276   9.1263   9.2682   9.4418  12.7342  13.3193
    13.3755  14.8363

          k =-0.1500 0.3500 0.1500 (  5162 PWs)   bands (ev):

   -46.3640 -22.7384 -22.6067 -22.6065  -6.8412  -6.3248  -6.1811  -5.3843
    -5.3499  -5.3081  -5.2254  -5.1905   3.1118   6.2110   6.4891   7.0182
     7.6366   7.9028   8.3848   9.1399   9.3161   9.6947  12.6739  13.6516
    13.6848  14.3648

          k =-0.1500 0.4500 0.1500 (  5168 PWs)   bands (ev):

   -46.3638 -22.7483 -22.6063 -22.6062  -6.7353  -6.3173  -6.1592  -5.3942
    -5.3478  -5.2924  -5.2411  -5.1967   2.9910   5.9330   6.4408   7.0674
     7.5829   7.8686   8.3518   9.1362   9.3454   9.8161  12.6196  13.8639
    13.8778  14.1539

          k = 0.2500 0.1500 0.2500 (  5161 PWs)   bands (ev):

   -46.3640 -22.7049 -22.6232 -22.6228  -6.9404  -6.2920  -6.1755  -5.3649
    -5.3512  -5.3087  -5.2002  -5.1815   3.2094   6.4525   6.5632   6.9083
     7.4077   7.7129   8.8079   9.0245   9.2968   9.3940  13.0646  13.2473
    13.4049  14.6344

          k =-0.1500 0.3500 0.2500 (  5155 PWs)   bands (ev):

   -46.3637 -22.7377 -22.6223 -22.6060  -6.7485  -6.3038  -6.1752  -5.3760
    -5.3509  -5.2886  -5.1994  -5.1572   3.0441   6.1480   6.3873   6.7347
     7.3488   7.7457   8.4173   9.1355   9.3213   9.5617  12.9467  13.6244
    13.7388  14.6130

          k = 0.3500 0.1500 0.2500 (  5155 PWs)   bands (ev):

   -46.3637 -22.7042 -22.6386 -22.6223  -6.8568  -6.2457  -6.1375  -5.3665
    -5.3439  -5.2884  -5.1988  -5.1796   3.0768   6.3039   6.4673   6.6728
     7.2239   7.7025   8.6778   9.0245   9.2576   9.5641  13.0418  13.4643
    13.6678  14.5893

          k =-0.1500 0.4500 0.2500 (  5156 PWs)   bands (ev):

   -46.3635 -22.7476 -22.6218 -22.6056  -6.6623  -6.2886  -6.1653  -5.3789
    -5.3467  -5.2685  -5.2085  -5.1497   2.9525   5.8988   6.2793   6.7299
     7.3337   7.8204   8.2467   9.1854   9.2792   9.5757  12.9253  13.8395
    13.9188  14.6919

          k = 0.4500 0.1500 0.2500 (  5156 PWs)   bands (ev):

   -46.3635 -22.7038 -22.6482 -22.6219  -6.8132  -6.2099  -6.1106  -5.3663
    -5.3372  -5.2701  -5.1993  -5.1858   2.9952   6.0796   6.4055   6.6360
     7.1868   7.7584   8.5075   9.0789   9.1655   9.6381  13.0243  13.6541
    13.8690  14.6196

          k = 0.3500 0.1500 0.3500 (  5157 PWs)   bands (ev):

   -46.3634 -22.7036 -22.6380 -22.6378  -6.8161  -6.1823  -6.1025  -5.3574
    -5.3371  -5.2656  -5.1951  -5.1470   2.9976   6.2449   6.2982   6.4624
     6.8612   7.6788   8.6915   8.9141   9.0681   9.7842  13.2639  13.5153
    13.8228  14.8664

          k =-0.1500 0.4500 0.3500 (  5160 PWs)   bands (ev):

   -46.3632 -22.7468 -22.6374 -22.6050  -6.6277  -6.2616  -6.1160  -5.3682
    -5.3296  -5.2554  -5.2254  -5.0627   2.9013   5.8298   6.3274   6.3971
     6.8800   7.7774   8.3321   8.8644   9.0528   9.7808  13.2988  13.8102
    14.0301  15.1668

          k = 0.4500 0.1500 0.3500 (  5160 PWs)   bands (ev):

   -46.3632 -22.7032 -22.6475 -22.6375  -6.8023  -6.1317  -6.0776  -5.3539
    -5.3257  -5.2504  -5.2058  -5.1202   2.9434   6.0310   6.3046   6.3633
     6.7487   7.7135   8.5307   8.8696   8.9680   9.9159  13.3665  13.6465
    13.9645  15.1036

          k = 0.4500 0.1500 0.4500 (  5150 PWs)   bands (ev):

   -46.3630 -22.7028 -22.6471 -22.6471  -6.8060  -6.0688  -6.0572  -5.3491
    -5.3061  -5.2368  -5.2247  -5.0763   2.9040   5.9082   6.2746   6.3559
     6.4609   7.7341   8.3158   8.8460   8.8537  10.0892  13.6200  13.6645
    14.0531  15.4068

          k =-0.2500 0.3500 0.2500 (  5153 PWs)   bands (ev):

   -46.3634 -22.7370 -22.6218 -22.6215  -6.6494  -6.3024  -6.2062  -5.3609
    -5.3407  -5.2419  -5.1569  -5.1210   3.1022   6.0072   6.1438   6.4525
     7.1836   7.2022   8.5308   9.2837   9.4095   9.4930  13.0181  13.6191
    13.7320  14.8588

          k =-0.2500 0.4500 0.2500 (  5140 PWs)   bands (ev):

   -46.3632 -22.7468 -22.6213 -22.6211  -6.5624  -6.2988  -6.2158  -5.3596
    -5.3318  -5.2010  -5.1635  -5.1065   3.0530   5.8745   5.9176   6.3958
     7.1626   7.2239   8.2993   9.2392   9.4381   9.5446  13.0728  13.7707
    13.9234  15.1355

          k = 0.3500 0.2500 0.3500 (  5149 PWs)   bands (ev):

   -46.3630 -22.7196 -22.6373 -22.6371  -6.6710  -6.2440  -6.1687  -5.3353
    -5.3296  -5.1900  -5.1120  -5.1104   3.1639   5.9445   5.9456   6.2497
     6.7197   7.0804   8.2354   9.3230   9.3687   9.7893  13.2393  13.6208
    13.8083  15.1689

          k =-0.2500 0.4500 0.3500 (  5156 PWs)   bands (ev):

   -46.3628 -22.7461 -22.6368 -22.6206  -6.5059  -6.3136  -6.2034  -5.3441
    -5.3084  -5.1734  -5.1228  -5.0313   3.1424   5.6910   5.9225   6.0871
     6.6125   7.1583   7.8342   9.2783   9.5199   9.7574  13.3639  13.7713
    13.9866  15.5273

          k = 0.4500 0.2500 0.3500 (  5156 PWs)   bands (ev):

   -46.3628 -22.7192 -22.6468 -22.6368  -6.6605  -6.2229  -6.1474  -5.3303
    -5.3156  -5.1441  -5.1111  -5.0846   3.1789   5.8115   5.9290   6.0227
     6.6025   7.0771   7.8853   9.3536   9.3734   9.9104  13.4315  13.6530
    13.9503  15.5047

          k = 0.4500 0.2500 0.4500 (  5156 PWs)   bands (ev):

   -46.3627 -22.7188 -22.6464 -22.6464  -6.6680  -6.1671  -6.1561  -5.3236
    -5.3009  -5.1064  -5.0952  -5.0482   3.2269   5.7755   5.7991   5.8992
     6.3827   7.0493   7.4702   9.3867   9.3912  10.0809  13.6477  13.7076
    14.0227  15.8234

          k =-0.3500 0.4500 0.3500 (  5151 PWs)   bands (ev):

   -46.3625 -22.7454 -22.6362 -22.6361  -6.4145  -6.3452  -6.2574  -5.3218
    -5.2954  -5.1019  -5.0286  -4.9866   3.4339   5.4210   5.7065   5.8546
     6.4754   6.6810   7.0934   9.6385   9.7756   9.8005  13.5710  13.8507
    13.9859  15.9140

          k = 0.4500 0.3500 0.4500 (  5148 PWs)   bands (ev):

   -46.3623 -22.7348 -22.6457 -22.6457  -6.5280  -6.2468  -6.2352  -5.2986
    -5.2979  -5.0238  -4.9850  -4.9817   3.6797   5.3891   5.3918   5.8104
     6.3820   6.4825   6.5525   9.7338   9.7430  10.0728  13.8069  13.8703
    14.0103  16.2647

     the Fermi energy is    10.1524 ev

!    total energy              =    -364.95437899 Ry
     Harris-Foulkes estimate   =    -364.95437899 Ry
     estimated scf accuracy    <          5.7E-09 Ry

     The total energy is the sum of the following terms:

     one-electron contribution =     -85.74371851 Ry
     hartree contribution      =      71.85535295 Ry
     xc contribution           =     -85.78191136 Ry
     ewald contribution        =    -265.29035831 Ry
     smearing contrib. (-TS)   =       0.00625624 Ry

     convergence has been achieved in  13 iterations

     Forces acting on atoms (cartesian axes, Ry/au):

     atom    1 type  1   force =     0.00000000    0.01785436    0.00000000
     atom    2 type  2   force =     0.00000000   -0.03312272    0.00000000
     atom    3 type  3   force =     0.00000000    0.00458801    0.00000000
     atom    4 type  3   force =     0.00000000    0.00609234    0.00000000
     atom    5 type  3   force =     0.00000000    0.00458801    0.00000000

     Total force =     0.034298     Total SCF correction =     0.000011


     Computing stress (Cartesian axis) and pressure

          total   stress  (Ry/bohr**3)                   (kbar)     P=   -7.55
  -0.00014584   0.00000000   0.00000000        -21.45      0.00      0.00
   0.00000000   0.00013761   0.00000000          0.00     20.24      0.00
   0.00000000   0.00000000  -0.00014584          0.00      0.00    -21.45


     BFGS Geometry Optimization

     number of scf cycles    =   1
     number of bfgs steps    =   0

     energy   new            =    -364.9543789887 Ry

     new trust radius        =       0.0331227196 bohr
     new conv_thr            =       0.0000000100 Ry


ATOMIC_POSITIONS (crystal)
Pb       0.000000000   0.000000000   0.000000000    0   0   0
Ti       0.500000000   0.543601232   0.500000000
O        0.500000000   0.500609298   0.000000000
O        0.500000000   0.000809075   0.500000000
O        0.000000000   0.500609298   0.500000000



     Writing output data file PbTiO3.save/
     NEW-OLD atomic charge density approx. for the potential

     Check: negative core charge=   -0.000005

     total cpu time spent up to now is      522.6 secs

     Self-consistent Calculation

     iteration #  1     ecut=    80.00 Ry     beta= 0.70
     Davidson diagonalization with overlap
     ethr =  1.00E-06,  avg # of iterations =  4.7

     total cpu time spent up to now is      586.3 secs

     total energy              =    -364.95525746 Ry
     Harris-Foulkes estimate   =    -364.95544057 Ry
     estimated scf accuracy    <       0.00027609 Ry

     iteration #  2     ecut=    80.00 Ry     beta= 0.70
     Davidson diagonalization with overlap
     ethr =  6.27E-07,  avg # of iterations =  4.2

     total cpu time spent up to now is      627.2 secs

     total energy              =    -364.95520835 Ry
     Harris-Foulkes estimate   =    -364.95547343 Ry
     estimated scf accuracy    <       0.00063377 Ry

     iteration #  3     ecut=    80.00 Ry     beta= 0.70
     Davidson diagonalization with overlap
     ethr =  6.27E-07,  avg # of iterations =  3.6

     total cpu time spent up to now is      666.2 secs

     total energy              =    -364.95534283 Ry
     Harris-Foulkes estimate   =    -364.95537550 Ry
     estimated scf accuracy    <       0.00009721 Ry

     iteration #  4     ecut=    80.00 Ry     beta= 0.70
     Davidson diagonalization with overlap
     ethr =  2.21E-07,  avg # of iterations =  3.0

     total cpu time spent up to now is      699.1 secs

     total energy              =    -364.95535736 Ry
     Harris-Foulkes estimate   =    -364.95535883 Ry
     estimated scf accuracy    <       0.00000282 Ry

     iteration #  5     ecut=    80.00 Ry     beta= 0.70
     Davidson diagonalization with overlap
     ethr =  6.42E-09,  avg # of iterations =  3.2

     total cpu time spent up to now is      738.2 secs

     total energy              =    -364.95535806 Ry
     Harris-Foulkes estimate   =    -364.95535895 Ry
     estimated scf accuracy    <       0.00000238 Ry

     iteration #  6     ecut=    80.00 Ry     beta= 0.70
     Davidson diagonalization with overlap
     ethr =  5.40E-09,  avg # of iterations =  2.7

     total cpu time spent up to now is      771.0 secs

     total energy              =    -364.95535852 Ry
     Harris-Foulkes estimate   =    -364.95535857 Ry
     estimated scf accuracy    <       0.00000017 Ry

     iteration #  7     ecut=    80.00 Ry     beta= 0.70
     Davidson diagonalization with overlap
     ethr =  3.82E-10,  avg # of iterations =  2.9

     total cpu time spent up to now is      805.2 secs

     End of self-consistent calculation

          k = 0.0500 0.0500 0.0500 (  5146 PWs)   bands (ev):

   -46.4049 -22.7132 -22.6383 -22.6383  -7.3915  -6.4359  -6.3370  -5.3296
    -5.3151  -5.3149  -5.1771  -5.1625   4.1884   6.6245   6.6625   6.7897
     8.6038   8.6302   8.9565   9.0544   9.2858   9.2932  12.2067  12.5977
    12.6034  14.3227

          k = 0.0500 0.0500 0.1500 (  5151 PWs)   bands (ev):

   -46.4047 -22.7129 -22.6481 -22.6379  -7.3128  -6.4030  -6.3087  -5.3367
    -5.3223  -5.3145  -5.2068  -5.1619   3.9113   6.6762   6.7397   6.9557
     8.3880   8.5584   8.9012   8.9652   9.1459   9.2767  12.5168  12.6065
    12.7215  14.4955

          k = 0.0500 0.0500 0.2500 (  5166 PWs)   bands (ev):

   -46.4044 -22.7123 -22.6639 -22.6374  -7.1814  -6.3450  -6.2636  -5.3488
    -5.3340  -5.3137  -5.2619  -5.1580   3.5614   6.6694   6.8548   6.9837
     8.2394   8.3341   8.8209   8.8986   9.0840   9.3414  12.6063  12.9706
    13.0598  14.4995

          k = 0.0500 0.0500 0.3500 (  5153 PWs)   bands (ev):

   -46.4041 -22.7117 -22.6797 -22.6368  -7.0442  -6.2776  -6.2216  -5.3670
    -5.3466  -5.3162  -5.3129  -5.1559   3.2847   6.3221   7.0359   7.1504
     7.9581   8.0655   8.7680   8.8441   9.1946   9.6887  12.6074  13.3808
    13.4538  13.9580

          k = 0.0500 0.0500 0.4500 (  5155 PWs)   bands (ev):

   -46.4039 -22.7113 -22.6894 -22.6364  -6.9559  -6.2238  -6.2037  -5.3937
    -5.3558  -5.3372  -5.3124  -5.1559   3.1400   6.0453   7.2284   7.4035
     7.6764   7.7537   8.7346   8.8524   9.2484  10.1104  12.5969  13.2564
    13.6233  13.7185

          k = 0.0500 0.1500 0.1500 (  5164 PWs)   bands (ev):

   -46.4045 -22.7229 -22.6477 -22.6376  -7.2238  -6.3825  -6.2819  -5.3372
    -5.3318  -5.3209  -5.1992  -5.1822   3.7028   6.6315   6.7401   7.1144
     8.1484   8.3787   8.7465   9.0230   9.1005   9.3559  12.5184  12.8593
    12.9470  14.6177

          k = 0.0500 0.1500 0.2500 (  5157 PWs)   bands (ev):

   -46.4042 -22.7223 -22.6635 -22.6370  -7.0971  -6.3317  -6.2441  -5.3531
    -5.3398  -5.3204  -5.2303  -5.1741   3.4221   6.5846   6.8552   7.0600
     7.9729   8.2007   8.6229   8.8749   9.0711   9.5061  12.8504  12.9772
    13.2269  14.6785

          k = 0.0500 0.1500 0.3500 (  5164 PWs)   bands (ev):

   -46.4039 -22.7216 -22.6792 -22.6364  -6.9670  -6.2793  -6.2026  -5.3715
    -5.3478  -5.3200  -5.2573  -5.1714   3.1854   6.3097   6.9582   7.1288
     7.7243   8.0317   8.5628   8.8824   9.0536   9.7380  12.8517  13.3763
    13.5705  14.1184

          k = 0.0500 0.1500 0.4500 (  5159 PWs)   bands (ev):

   -46.4037 -22.7212 -22.6889 -22.6361  -6.8850  -6.2463  -6.1740  -5.3863
    -5.3553  -5.3197  -5.2661  -5.1744   3.0571   6.0494   7.0789   7.2822
     7.5551   7.7705   8.6041   8.9447   9.0257   9.9240  12.8354  13.6095
    13.6484  13.8088

          k = 0.0500 0.2500 0.2500 (  5159 PWs)   bands (ev):

   -46.4039 -22.7384 -22.6628 -22.6364  -6.9597  -6.3138  -6.2023  -5.3573
    -5.3434  -5.3271  -5.2076  -5.1871   3.2105   6.4646   6.8488   6.9867
     7.7567   7.9156   8.4025   8.8333   9.2494   9.6376  12.9537  13.2507
    13.4968  14.6607

          k = 0.0500 0.2500 0.3500 (  5159 PWs)   bands (ev):

   -46.4036 -22.7377 -22.6785 -22.6358  -6.8510  -6.2803  -6.1510  -5.3666
    -5.3469  -5.3285  -5.2183  -5.1667   3.0273   6.2785   6.7275   7.0730
     7.5484   7.8777   8.2971   8.6714   9.3540   9.6439  13.2245  13.3717
    13.7563  14.3993

          k = 0.0500 0.2500 0.4500 (  5161 PWs)   bands (ev):

   -46.4034 -22.7372 -22.6881 -22.6354  -6.7886  -6.2575  -6.1114  -5.3732
    -5.3538  -5.3298  -5.2121  -5.1633   2.9232   6.0476   6.7583   7.0710
     7.4662   7.8782   8.2232   8.6739   9.3614   9.6196  13.2239  13.5983
    13.9482  14.2212

          k = 0.0500 0.3500 0.3500 (  5166 PWs)   bands (ev):

   -46.4033 -22.7536 -22.6777 -22.6352  -6.7578  -6.2471  -6.0932  -5.3652
    -5.3496  -5.3305  -5.2412  -5.1105   2.8741   6.1099   6.4639   7.0760
     7.4634   7.7368   8.1840   8.5918   9.3040   9.7048  13.3391  13.6157
    13.9497  14.6946

          k = 0.0500 0.3500 0.4500 (  5173 PWs)   bands (ev):

   -46.4031 -22.7532 -22.6874 -22.6348  -6.7296  -6.2138  -6.0418  -5.3666
    -5.3524  -5.3339  -5.2495  -5.0775   2.7904   5.9829   6.3402   7.1279
     7.3056   7.9084   8.0854   8.4793   9.0962   9.7896  13.5711  13.6135
    14.1093  14.7611

          k = 0.0500 0.4500 0.4500 (  5177 PWs)   bands (ev):

   -46.4029 -22.7630 -22.6869 -22.6344  -6.7145  -6.1570  -5.9946  -5.3687
    -5.3516  -5.3338  -5.2740  -5.0283   2.7093   5.8088   6.2221   7.1316
     7.2606   7.8730   8.1290   8.3922   8.7795   9.9626  13.5611  13.8430
    14.2219  15.0926

          k = 0.1500 0.1500 0.1500 (  5164 PWs)   bands (ev):

   -46.4043 -22.7225 -22.6475 -22.6472  -7.1503  -6.3591  -6.2600  -5.3452
    -5.3373  -5.3199  -5.1964  -5.1835   3.5615   6.6135   6.6544   7.2224
     7.9938   8.1220   8.7334   9.0832   9.1934   9.2334  12.7392  12.9323
    12.9605  15.1036

          k = 0.1500 0.1500 0.2500 (  5155 PWs)   bands (ev):

   -46.4040 -22.7219 -22.6631 -22.6467  -7.0310  -6.3193  -6.2228  -5.3593
    -5.3381  -5.3159  -5.2125  -5.1744   3.3468   6.5510   6.6558   7.0850
     7.7663   7.9207   8.7416   8.9950   9.1732   9.4114  12.8997  13.1037
    13.2219  14.8179

          k = 0.1500 0.1500 0.3500 (  5162 PWs)   bands (ev):

   -46.4037 -22.7213 -22.6788 -22.6461  -6.9128  -6.2768  -6.1819  -5.3716
    -5.3315  -5.3090  -5.2352  -5.1715   3.1513   6.3107   6.6668   6.9861
     7.5524   7.9719   8.4873   9.0523   9.1855   9.6092  12.8429  13.4302
    13.5595  14.3197

          k = 0.1500 0.1500 0.4500 (  5168 PWs)   bands (ev):

   -46.4035 -22.7209 -22.6885 -22.6458  -6.8413  -6.2493  -6.1532  -5.3767
    -5.3266  -5.3007  -5.2511  -5.1756   3.0408   6.0551   6.6692   7.0385
     7.4486   8.0875   8.2452   9.1203   9.1718   9.7075  12.7809  13.6446
    13.7908  14.0814

          k = 0.1500 0.2500 0.2500 (  5161 PWs)   bands (ev):

   -46.4037 -22.7380 -22.6624 -22.6461  -6.8917  -6.3066  -6.2055  -5.3614
    -5.3465  -5.3025  -5.1887  -5.1700   3.2039   6.4153   6.5349   6.9115
     7.4713   7.7299   8.6864   9.0212   9.2890   9.4920  12.9938  13.2592
    13.4502  14.6212

          k = 0.1500 0.2500 0.3500 (  5155 PWs)   bands (ev):

   -46.4034 -22.7373 -22.6781 -22.6455  -6.7876  -6.2910  -6.1605  -5.3643
    -5.3368  -5.2914  -5.1917  -5.1514   3.0704   6.2586   6.4945   6.6913
     7.1863   7.7694   8.6819   8.8862   9.3439   9.5050  13.0964  13.4012
    13.6942  14.5771

          k = 0.1500 0.2500 0.4500 (  5156 PWs)   bands (ev):

   -46.4032 -22.7369 -22.6877 -22.6451  -6.7291  -6.2840  -6.1216  -5.3634
    -5.3281  -5.2868  -5.1863  -5.1498   2.9892   6.0476   6.4596   6.6391
     7.0991   7.8652   8.4918   8.9750   9.2601   9.5078  13.0937  13.5907
    13.8883  14.6146

          k = 0.1500 0.3500 0.3500 (  5157 PWs)   bands (ev):

   -46.4031 -22.7532 -22.6773 -22.6449  -6.6834  -6.2757  -6.1371  -5.3608
    -5.3297  -5.2712  -5.1990  -5.0952   2.9763   6.0820   6.3889   6.4686
     6.8940   7.7349   8.5611   8.8825   9.1605   9.6772  13.2546  13.5470
    13.8626  14.8712

          k = 0.1500 0.3500 0.4500 (  5160 PWs)   bands (ev):

   -46.4029 -22.7528 -22.6870 -22.6445  -6.6546  -6.2652  -6.0902  -5.3569
    -5.3127  -5.2729  -5.2017  -5.0623   2.9222   5.9723   6.2768   6.4509
     6.7129   7.8003   8.4706   8.8219   8.9585   9.7836  13.4574  13.5717
    14.0117  15.0998

          k = 0.1500 0.4500 0.4500 (  5150 PWs)   bands (ev):

   -46.4027 -22.7626 -22.6865 -22.6441  -6.6359  -6.2193  -6.0717  -5.3542
    -5.2935  -5.2575  -5.2246  -5.0119   2.8740   5.7938   6.1887   6.4505
     6.5681   7.8023   8.2170   8.7295   8.9061   9.9491  13.5397  13.7370
    14.1145  15.4315

          k = 0.2500 0.2500 0.2500 (  5166 PWs)   bands (ev):

   -46.4034 -22.7373 -22.6619 -22.6616  -6.7895  -6.2932  -6.2021  -5.3512
    -5.3475  -5.2719  -5.1654  -5.1446   3.1765   6.2514   6.3165   6.7696
     7.2330   7.2982   8.8417   9.2484   9.2849   9.4321  13.0045  13.4187
    13.4255  14.6440

          k = 0.2500 0.2500 0.3500 (  5153 PWs)   bands (ev):

   -46.4031 -22.7366 -22.6774 -22.6612  -6.7033  -6.2853  -6.1739  -5.3463
    -5.3323  -5.2358  -5.1482  -5.1268   3.1294   6.1123   6.1812   6.4480
     6.9707   7.2606   8.6638   9.2257   9.3235   9.5661  13.0683  13.4844
    13.6776  14.8416

          k = 0.2500 0.2500 0.4500 (  5140 PWs)   bands (ev):

   -46.4029 -22.7362 -22.6870 -22.6608  -6.6609  -6.2859  -6.1384  -5.3425
    -5.3211  -5.2003  -5.1454  -5.1219   3.0922   6.0076   6.0605   6.2755
     6.9086   7.3015   8.4282   9.2510   9.2898   9.6240  13.1570  13.5851
    13.8696  15.0934

          k = 0.2500 0.3500 0.3500 (  5149 PWs)   bands (ev):

   -46.4028 -22.7526 -22.6767 -22.6605  -6.5746  -6.3048  -6.1966  -5.3388
    -5.3147  -5.1952  -5.1246  -5.0661   3.1531   5.8844   6.0109   6.2343
     6.6471   7.1447   8.2111   9.3082   9.4705   9.6780  13.2224  13.6085
    13.8086  15.1691

          k = 0.2500 0.3500 0.4500 (  5156 PWs)   bands (ev):

   -46.4026 -22.7521 -22.6863 -22.6601  -6.5459  -6.3203  -6.1566  -5.3326
    -5.2996  -5.1674  -5.1143  -5.0335   3.1660   5.8603   5.8983   6.0371
     6.4762   7.1682   7.8547   9.3327   9.4602   9.7882  13.4427  13.6117
    13.9524  15.5108

          k = 0.2500 0.4500 0.4500 (  5156 PWs)   bands (ev):

   -46.4024 -22.7619 -22.6858 -22.6597  -6.5090  -6.3014  -6.1682  -5.3284
    -5.2827  -5.1459  -5.0971  -4.9809   3.1982   5.6911   5.8813   5.9383
     6.2805   7.1443   7.4032   9.3294   9.5037   9.9350  13.5918  13.7255
    14.0451  15.8449

          k = 0.3500 0.3500 0.3500 (  5151 PWs)   bands (ev):

   -46.4024 -22.7519 -22.6761 -22.6760  -6.5064  -6.3006  -6.2338  -5.3157
    -5.3045  -5.1228  -5.0568  -5.0304   3.3428   5.6272   5.7111   6.0921
     6.5934   6.6489   7.5813   9.5793   9.6681   9.7883  13.3827  13.7837
    13.7850  15.5360

          k = 0.3500 0.3500 0.4500 (  5151 PWs)   bands (ev):

   -46.4022 -22.7515 -22.6856 -22.6757  -6.4958  -6.3047  -6.2131  -5.3065
    -5.2939  -5.0716  -5.0305  -4.9994   3.4627   5.5152   5.5827   5.9210
     6.4341   6.6304   7.1016   9.6348   9.7406   9.9008  13.5991  13.7485
    13.9425  15.9143

          k = 0.3500 0.4500 0.4500 (  5148 PWs)   bands (ev):

   -46.4021 -22.7613 -22.6852 -22.6753  -6.4002  -6.3519  -6.2456  -5.3028
    -5.2791  -5.0424  -4.9847  -4.9433   3.6584   5.3683   5.4945   5.7698
     6.2502   6.4893   6.6018   9.7306   9.8829   9.9273  13.7573  13.8515
    14.0128  16.2758

          k = 0.4500 0.4500 0.4500 (  5142 PWs)   bands (ev):

   -46.4019 -22.7608 -22.6848 -22.6848  -6.4174  -6.2980  -6.2842  -5.2884
    -5.2759  -4.9815  -4.9216  -4.9156   4.1366   5.1890   5.2554   5.6754
     5.7509   6.2377   6.3405   9.9083   9.9209  10.0552  13.9245  13.9893
    13.9924  16.6275

          k =-0.0500 0.1500 0.0500 (  5151 PWs)   bands (ev):

   -46.4047 -22.7233 -22.6379 -22.6379  -7.3006  -6.4131  -6.3040  -5.3291
    -5.3235  -5.3211  -5.1970  -5.1736   3.9057   6.6690   6.6775   6.9613
     8.4059   8.4343   8.9031   8.9466   9.2999   9.3179  12.2085  12.8488
    12.8633  14.3246

          k =-0.0500 0.2500 0.0500 (  5166 PWs)   bands (ev):

   -46.4044 -22.7395 -22.6373 -22.6373  -7.1454  -6.3799  -6.2456  -5.3390
    -5.3304  -5.3281  -5.2558  -5.1696   3.5447   6.6283   6.7706   6.9158
     8.1385   8.1688   8.8967   8.9859   9.3640   9.4258  12.2114  13.2342
    13.2564  14.3282

          k =-0.0500 0.3500 0.0500 (  5153 PWs)   bands (ev):

   -46.4041 -22.7556 -22.6367 -22.6367  -6.9764  -6.3547  -6.1785  -5.3660
    -5.3382  -5.3273  -5.3118  -5.1679   3.2559   6.2500   6.8785   6.9983
     7.8938   7.9067   8.8350   9.2080   9.4156   9.7803  12.2133  13.6024
    13.6296  14.0274

          k =-0.0500 0.4500 0.0500 (  5155 PWs)   bands (ev):

   -46.4039 -22.7655 -22.6364 -22.6364  -6.8609  -6.3469  -6.1305  -5.4015
    -5.3425  -5.3341  -5.3268  -5.1682   3.1033   5.9499   6.9599   7.1180
     7.7148   7.7401   8.7950   9.2986   9.4500  10.2127  12.2117  13.3040
    13.8233  13.8564

          k = 0.1500 0.0500 0.1500 (  5164 PWs)   bands (ev):

   -46.4045 -22.7125 -22.6479 -22.6476  -7.2382  -6.3765  -6.2788  -5.3441
    -5.3227  -5.3204  -5.2076  -5.1755   3.7102   6.6288   6.8039   7.0987
     8.2040   8.3061   8.7918   8.9872   9.1549   9.3036  12.6836  12.7363
    12.7825  14.8139

          k =-0.0500 0.2500 0.1500 (  5157 PWs)   bands (ev):

   -46.4042 -22.7391 -22.6471 -22.6370  -7.0738  -6.3524  -6.2343  -5.3503
    -5.3357  -5.3278  -5.2238  -5.1843   3.4115   6.5367   6.7992   7.0470
     7.8814   8.1453   8.6262   9.0554   9.1538   9.5472  12.5175  13.2423
    13.3014  14.6447

          k = 0.2500 0.0500 0.1500 (  5157 PWs)   bands (ev):

   -46.4042 -22.7119 -22.6635 -22.6471  -7.1164  -6.3278  -6.2311  -5.3548
    -5.3309  -5.3204  -5.2371  -5.1758   3.4303   6.6050   6.8599   7.0653
     7.9646   8.0816   8.6836   8.9798   9.1673   9.4168  12.7097  13.0456
    13.1469  14.8407

          k =-0.0500 0.3500 0.1500 (  5164 PWs)   bands (ev):

   -46.4039 -22.7551 -22.6465 -22.6364  -6.9140  -6.3267  -6.1812  -5.3734
    -5.3360  -5.3326  -5.2541  -5.1822   3.1628   6.2177   6.8210   7.0732
     7.6649   7.9277   8.6982   9.0448   9.2133   9.8274  12.5104  13.6050
    13.6461  14.2027

          k = 0.3500 0.0500 0.1500 (  5164 PWs)   bands (ev):

   -46.4039 -22.7113 -22.6792 -22.6465  -6.9940  -6.2662  -6.1871  -5.3700
    -5.3357  -5.3200  -5.2736  -5.1736   3.1933   6.3242   6.9015   7.1741
     7.6914   8.0524   8.4193   9.0362   9.1917   9.7000  12.6929  13.4291
    13.5111  14.1692

          k =-0.0500 0.4500 0.1500 (  5159 PWs)   bands (ev):

   -46.4037 -22.7650 -22.6461 -22.6360  -6.8087  -6.3137  -6.1452  -5.3941
    -5.3392  -5.3339  -5.2645  -5.1854   3.0266   5.9340   6.8433   7.1853
     7.5307   7.7610   8.7962   9.0225   9.2522  10.0448  12.4973  13.6811
    13.8373  13.8906

          k = 0.4500 0.0500 0.1500 (  5159 PWs)   bands (ev):

   -46.4037 -22.7109 -22.6889 -22.6462  -6.9190  -6.2121  -6.1694  -5.3852
    -5.3393  -5.3197  -5.2905  -5.1751   3.0646   6.0532   7.0152   7.2668
     7.6132   7.8348   8.3707   9.0254   9.2301   9.9479  12.6576  13.6653
    13.6884  13.7502

          k = 0.2500 0.0500 0.2500 (  5159 PWs)   bands (ev):

   -46.4039 -22.7113 -22.6631 -22.6627  -7.0169  -6.2880  -6.1780  -5.3550
    -5.3333  -5.3252  -5.2100  -5.2027   3.2306   6.5631   6.7884   7.0670
     7.6835   7.7637   8.6983   8.8035   9.3734   9.4694  12.9717  13.0965
    13.4101  14.7654

          k =-0.0500 0.3500 0.2500 (  5159 PWs)   bands (ev):

   -46.4036 -22.7544 -22.6621 -22.6358  -6.8250  -6.2878  -6.1548  -5.3677
    -5.3450  -5.3310  -5.2206  -5.1686   3.0155   6.1738   6.7537   6.9972
     7.5723   7.8391   8.2653   8.8722   9.3074   9.7362  12.9429  13.6175
    13.7608  14.4726

          k = 0.3500 0.0500 0.2500 (  5159 PWs)   bands (ev):

   -46.4036 -22.7107 -22.6785 -22.6622  -6.9281  -6.2247  -6.1273  -5.3607
    -5.3352  -5.3265  -5.2235  -5.1926   3.0466   6.3300   6.6977   7.0798
     7.4942   7.7617   8.3838   8.8758   9.3874   9.6351  12.9980  13.4303
    13.6840  14.4569

          k =-0.0500 0.4500 0.2500 (  5161 PWs)   bands (ev):

   -46.4034 -22.7642 -22.6617 -22.6354  -6.7470  -6.2590  -6.1262  -5.3798
    -5.3443  -5.3370  -5.2196  -5.1621   2.9033   5.9043   6.7557   6.9751
     7.5335   7.7668   8.2666   8.9149   9.2732   9.7837  12.9323  13.8435
    13.9162  14.3539

          k = 0.4500 0.0500 0.2500 (  5161 PWs)   bands (ev):

   -46.4034 -22.7103 -22.6882 -22.6618  -6.8806  -6.1625  -6.1055  -5.3696
    -5.3371  -5.3300  -5.2167  -5.1962   2.9411   6.0595   6.7817   6.9634
     7.5324   7.8662   8.0866   8.9562   9.3153   9.7493  12.9795  13.6825
    13.8669  14.2606

          k = 0.3500 0.0500 0.3500 (  5166 PWs)   bands (ev):

   -46.4033 -22.7101 -22.6779 -22.6777  -6.8838  -6.1478  -6.0658  -5.3559
    -5.3398  -5.3248  -5.2425  -5.1507   2.9032   6.2606   6.4209   7.0540
     7.2484   7.7616   8.3986   8.6168   9.3113   9.7728  13.3385  13.4656
    13.8758  14.7009

          k =-0.0500 0.4500 0.3500 (  5173 PWs)   bands (ev):

   -46.4031 -22.7635 -22.6773 -22.6348  -6.7181  -6.1990  -6.0574  -5.3704
    -5.3501  -5.3347  -5.2532  -5.0765   2.7823   5.8633   6.4313   7.0156
     7.4622   7.7481   8.1005   8.6044   9.0858   9.8306  13.3321  13.8444
    14.0870  14.8804

          k = 0.4500 0.0500 0.3500 (  5173 PWs)   bands (ev):

   -46.4031 -22.7097 -22.6874 -22.6774  -6.8668  -6.0742  -6.0345  -5.3586
    -5.3381  -5.3317  -5.2539  -5.1217   2.8171   6.0218   6.4275   6.9459
     7.2178   7.9240   8.1708   8.6259   9.1205   9.9143  13.3863  13.6761
    14.0126  14.7928

          k = 0.4500 0.0500 0.4500 (  5177 PWs)   bands (ev):

   -46.4029 -22.7093 -22.6870 -22.6870  -6.8677  -6.0009  -5.9883  -5.3577
    -5.3359  -5.3314  -5.2818  -5.0771   2.7407   5.9031   6.3020   6.9874
     7.0098   8.0676   8.2356   8.3744   8.8676  10.0821  13.6569  13.6799
    14.1090  15.0288

          k =-0.1500 0.2500 0.1500 (  5155 PWs)   bands (ev):

   -46.4040 -22.7386 -22.6468 -22.6466  -7.0030  -6.3323  -6.2284  -5.3582
    -5.3440  -5.3147  -5.2002  -5.1850   3.3348   6.5283   6.5762   7.0935
     7.7716   7.9390   8.5657   9.1406   9.2520   9.4291  12.7129  13.2597
    13.3069  14.8381

          k =-0.1500 0.3500 0.1500 (  5162 PWs)   bands (ev):

   -46.4037 -22.7547 -22.6462 -22.6460  -6.8485  -6.3078  -6.1953  -5.3760
    -5.3406  -5.3019  -5.2216  -5.1827   3.1270   6.2194   6.5220   7.0119
     7.6258   7.9316   8.3915   9.1566   9.2997   9.6805  12.6531  13.5990
    13.6263  14.3598

          k =-0.1500 0.4500 0.1500 (  5168 PWs)   bands (ev):

   -46.4035 -22.7646 -22.6458 -22.6456  -6.7487  -6.2942  -6.1740  -5.3853
    -5.3383  -5.2869  -5.2374  -5.1884   3.0085   5.9371   6.4804   7.0651
     7.5616   7.9089   8.3382   9.1537   9.3284   9.8022  12.5977  13.8153
    13.8277  14.1434

          k = 0.2500 0.1500 0.2500 (  5161 PWs)   bands (ev):

   -46.4037 -22.7213 -22.6626 -22.6623  -6.9304  -6.2908  -6.1871  -5.3577
    -5.3438  -5.3014  -5.1915  -5.1770   3.2170   6.4578   6.5663   6.9048
     7.4199   7.7065   8.8359   9.0129   9.3086   9.3921  13.0358  13.2017
    13.3754  14.6309

          k =-0.1500 0.3500 0.2500 (  5155 PWs)   bands (ev):

   -46.4034 -22.7540 -22.6618 -22.6455  -6.7543  -6.2877  -6.1868  -5.3675
    -5.3421  -5.2821  -5.1922  -5.1537   3.0574   6.1673   6.4083   6.7211
     7.3306   7.7376   8.4583   9.1223   9.3358   9.5509  12.9320  13.5662
    13.6989  14.6039

          k = 0.3500 0.1500 0.2500 (  5155 PWs)   bands (ev):

   -46.4034 -22.7206 -22.6781 -22.6618  -6.8420  -6.2490  -6.1480  -5.3597
    -5.3366  -5.2816  -5.1907  -5.1730   3.0834   6.2954   6.4742   6.6722
     7.2284   7.7005   8.6736   9.0338   9.2746   9.5564  13.0089  13.4388
    13.6400  14.5857

          k =-0.1500 0.4500 0.2500 (  5156 PWs)   bands (ev):

   -46.4032 -22.7638 -22.6613 -22.6451  -6.6745  -6.2654  -6.1776  -5.3700
    -5.3376  -5.2633  -5.2000  -5.1470   2.9675   5.9114   6.3067   6.7163
     7.3088   7.8162   8.2799   9.1795   9.2804   9.5733  12.9073  13.7839
    13.8818  14.6840

          k = 0.4500 0.1500 0.2500 (  5156 PWs)   bands (ev):

   -46.4032 -22.7202 -22.6877 -22.6614  -6.7957  -6.2164  -6.1197  -5.3596
    -5.3301  -5.2643  -5.1904  -5.1784   3.0016   6.0572   6.4124   6.6435
     7.1878   7.7623   8.4939   9.0909   9.1840   9.6276  12.9863  13.6401
    13.8391  14.6253

          k = 0.3500 0.1500 0.3500 (  5157 PWs)   bands (ev):

   -46.4031 -22.7200 -22.6775 -22.6773  -6.7966  -6.1893  -6.1127  -5.3513
    -5.3293  -5.2600  -5.1903  -5.1352   3.0020   6.2410   6.2966   6.4670
     6.8596   7.6739   8.6905   8.9089   9.0800   9.7757  13.2476  13.4800
    13.8044  14.8622

          k =-0.1500 0.4500 0.3500 (  5160 PWs)   bands (ev):

   -46.4029 -22.7630 -22.6769 -22.6445  -6.6393  -6.2378  -6.1261  -5.3594
    -5.3207  -5.2494  -5.2175  -5.0608   2.9133   5.8508   6.3424   6.3743
     6.8594   7.7630   8.3623   8.8714   9.0393   9.7952  13.2855  13.7523
    14.0014  15.1580

          k = 0.4500 0.1500 0.3500 (  5160 PWs)   bands (ev):

   -46.4029 -22.7196 -22.6870 -22.6770  -6.7810  -6.1405  -6.0868  -5.3479
    -5.3177  -5.2457  -5.2009  -5.1074   2.9467   6.0143   6.3090   6.3701
     6.7490   7.7096   8.5213   8.8739   8.9703   9.9054  13.3397  13.6232
    13.9484  15.1081

          k = 0.4500 0.1500 0.4500 (  5150 PWs)   bands (ev):

   -46.4027 -22.7192 -22.6866 -22.6865  -6.7836  -6.0778  -6.0663  -5.3432
    -5.2975  -5.2326  -5.2203  -5.0627   2.9055   5.8931   6.2598   6.3810
     6.4623   7.7286   8.3049   8.8440   8.8536  10.0770  13.5941  13.6343
    14.0466  15.4130

          k =-0.2500 0.3500 0.2500 (  5153 PWs)   bands (ev):

   -46.4031 -22.7533 -22.6612 -22.6610  -6.6512  -6.2883  -6.2172  -5.3522
    -5.3329  -5.2342  -5.1497  -5.1186   3.1144   6.0332   6.1543   6.4453
     7.1545   7.1801   8.5655   9.2830   9.3995   9.5086  13.0067  13.5714
    13.6897  14.8495

          k =-0.2500 0.4500 0.2500 (  5140 PWs)   bands (ev):

   -46.4029 -22.7631 -22.6608 -22.6606  -6.5724  -6.2761  -6.2266  -5.3506
    -5.3237  -5.1925  -5.1573  -5.1045   3.0670   5.9020   5.9256   6.3827
     7.1290   7.2073   8.3273   9.2442   9.4294   9.5607  13.0557  13.7249
    13.8826  15.1309

          k = 0.3500 0.2500 0.3500 (  5149 PWs)   bands (ev):

   -46.4028 -22.7360 -22.6768 -22.6766  -6.6530  -6.2483  -6.1777  -5.3291
    -5.3211  -5.1831  -5.1075  -5.1020   3.1700   5.9513   5.9625   6.2436
     6.6872   7.0659   8.2390   9.3417   9.3772   9.7811  13.2233  13.5852
    13.7784  15.1639

          k =-0.2500 0.4500 0.3500 (  5156 PWs)   bands (ev):

   -46.4026 -22.7624 -22.6763 -22.6601  -6.5146  -6.2917  -6.2121  -5.3353
    -5.3012  -5.1616  -5.1191  -5.0296   3.1544   5.7176   5.9275   6.0725
     6.5838   7.1307   7.8448   9.3032   9.5066   9.7781  13.3475  13.7248
    13.9518  15.5247

          k = 0.4500 0.2500 0.3500 (  5156 PWs)   bands (ev):

   -46.4026 -22.7356 -22.6863 -22.6763  -6.6399  -6.2296  -6.1553  -5.3240
    -5.3071  -5.1384  -5.1077  -5.0741   3.1834   5.8194   5.9462   6.0085
     6.5732   7.0640   7.8838   9.3661   9.3877   9.9004  13.4028  13.6304
    13.9226  15.5069

          k = 0.4500 0.2500 0.4500 (  5156 PWs)   bands (ev):

   -46.4024 -22.7352 -22.6859 -22.6859  -6.6457  -6.1744  -6.1636  -5.3176
    -5.2919  -5.1031  -5.0926  -5.0345   3.2289   5.7876   5.8177   5.8892
     6.3409   7.0404   7.4627   9.3994   9.4027  10.0686  13.6206  13.6766
    14.0042  15.8296

          k =-0.3500 0.4500 0.3500 (  5151 PWs)   bands (ev):

   -46.4022 -22.7617 -22.6757 -22.6756  -6.4132  -6.3318  -6.2653  -5.3128
    -5.2891  -5.0880  -5.0259  -4.9852   3.4453   5.4396   5.6956   5.8587
     6.4560   6.6404   7.0970   9.6648   9.7777   9.8082  13.5523  13.8107
    13.9502  15.9157

          k = 0.4500 0.3500 0.4500 (  5148 PWs)   bands (ev):

   -46.4021 -22.7511 -22.6852 -22.6852  -6.5060  -6.2531  -6.2419  -5.2919
    -5.2896  -5.0104  -4.9814  -4.9799   3.6833   5.3987   5.4071   5.8003
     6.3389   6.4704   6.5454   9.7539   9.7621  10.0604  13.7786  13.8381
    13.9850  16.2716

     the Fermi energy is    10.1533 ev

!    total energy              =    -364.95535855 Ry
     Harris-Foulkes estimate   =    -364.95535855 Ry
     estimated scf accuracy    <          4.4E-09 Ry

     The total energy is the sum of the following terms:

     one-electron contribution =     -85.54005785 Ry
     hartree contribution      =      71.74405400 Ry
     xc contribution           =     -85.77356569 Ry
     ewald contribution        =    -265.39205972 Ry
     smearing contrib. (-TS)   =       0.00627070 Ry

     convergence has been achieved in   7 iterations

     Forces acting on atoms (cartesian axes, Ry/au):

     atom    1 type  1   force =     0.00000000    0.01602519    0.00000000
     atom    2 type  2   force =     0.00000000   -0.02313616    0.00000000
     atom    3 type  3   force =     0.00000000    0.00379868    0.00000000
     atom    4 type  3   force =     0.00000000   -0.00048638    0.00000000
     atom    5 type  3   force =     0.00000000    0.00379868    0.00000000

     Total force =     0.023757     Total SCF correction =     0.000243


     Computing stress (Cartesian axis) and pressure

          total   stress  (Ry/bohr**3)                   (kbar)     P=  -12.16
  -0.00015558   0.00000000   0.00000000        -22.89      0.00      0.00
   0.00000000   0.00006308   0.00000000          0.00      9.28      0.00
   0.00000000   0.00000000  -0.00015558          0.00      0.00    -22.89


     number of scf cycles    =   2
     number of bfgs steps    =   1

     energy   old            =    -364.9543789887 Ry
     energy   new            =    -364.9553585511 Ry

     CASE: energy  _new < energy  _old

     new trust radius        =       0.0364349916 bohr
     new conv_thr            =       0.0000000010 Ry


ATOMIC_POSITIONS (crystal)
Pb       0.000000000   0.000000000   0.000000000    0   0   0
Ti       0.500000000   0.538762588   0.500000000
O        0.500000000   0.501393904   0.000000000
O        0.500000000   0.000785921   0.500000000
O        0.000000000   0.501393904   0.500000000



     Writing output data file PbTiO3.save/
     NEW-OLD atomic charge density approx. for the potential

     Check: negative core charge=   -0.000005

     total cpu time spent up to now is      827.3 secs

     Self-consistent Calculation

     iteration #  1     ecut=    80.00 Ry     beta= 0.70
     Davidson diagonalization with overlap
     ethr =  1.00E-06,  avg # of iterations =  4.9

     total cpu time spent up to now is      891.3 secs

     total energy              =    -364.95600812 Ry
     Harris-Foulkes estimate   =    -364.95614912 Ry
     estimated scf accuracy    <       0.00022243 Ry

     iteration #  2     ecut=    80.00 Ry     beta= 0.70
     Davidson diagonalization with overlap
     ethr =  5.06E-07,  avg # of iterations =  4.0

     total cpu time spent up to now is      932.1 secs

     total energy              =    -364.95597019 Ry
     Harris-Foulkes estimate   =    -364.95617199 Ry
     estimated scf accuracy    <       0.00047467 Ry

     iteration #  3     ecut=    80.00 Ry     beta= 0.70
     Davidson diagonalization with overlap
     ethr =  5.06E-07,  avg # of iterations =  3.6

     total cpu time spent up to now is      969.9 secs

     total energy              =    -364.95607270 Ry
     Harris-Foulkes estimate   =    -364.95610051 Ry
     estimated scf accuracy    <       0.00008337 Ry

     iteration #  4     ecut=    80.00 Ry     beta= 0.70
     Davidson diagonalization with overlap
     ethr =  1.89E-07,  avg # of iterations =  3.0

     total cpu time spent up to now is     1002.1 secs

     total energy              =    -364.95608532 Ry
     Harris-Foulkes estimate   =    -364.95608629 Ry
     estimated scf accuracy    <       0.00000195 Ry

     iteration #  5     ecut=    80.00 Ry     beta= 0.70
     Davidson diagonalization with overlap
     ethr =  4.43E-09,  avg # of iterations =  3.2

     total cpu time spent up to now is     1041.6 secs

     total energy              =    -364.95608591 Ry
     Harris-Foulkes estimate   =    -364.95608635 Ry
     estimated scf accuracy    <       0.00000104 Ry

     iteration #  6     ecut=    80.00 Ry     beta= 0.70
     Davidson diagonalization with overlap
     ethr =  2.37E-09,  avg # of iterations =  2.9

     total cpu time spent up to now is     1075.1 secs

     total energy              =    -364.95608614 Ry
     Harris-Foulkes estimate   =    -364.95608622 Ry
     estimated scf accuracy    <       0.00000028 Ry

     iteration #  7     ecut=    80.00 Ry     beta= 0.70
     Davidson diagonalization with overlap
     ethr =  6.45E-10,  avg # of iterations =  2.7

     total cpu time spent up to now is     1106.5 secs

     total energy              =    -364.95608618 Ry
     Harris-Foulkes estimate   =    -364.95608618 Ry
     estimated scf accuracy    <          3.7E-09 Ry

     iteration #  8     ecut=    80.00 Ry     beta= 0.70
     Davidson diagonalization with overlap
     ethr =  8.44E-12,  avg # of iterations =  4.0

     total cpu time spent up to now is     1152.7 secs

     End of self-consistent calculation

          k = 0.0500 0.0500 0.0500 (  5146 PWs)   bands (ev):

   -46.4390 -22.7291 -22.6719 -22.6719  -7.3907  -6.4295  -6.3493  -5.3209
    -5.3095  -5.3092  -5.1709  -5.1595   4.1969   6.6268   6.6582   6.7830
     8.6712   8.6955   8.9626   9.0913   9.2905   9.3013  12.1823  12.4935
    12.4959  14.2815

          k = 0.0500 0.0500 0.1500 (  5151 PWs)   bands (ev):

   -46.4388 -22.7288 -22.6817 -22.6715  -7.3109  -6.3971  -6.3206  -5.3281
    -5.3166  -5.3088  -5.2011  -5.1581   3.9196   6.6766   6.7317   6.9523
     8.4462   8.5955   8.9290   8.9874   9.1427   9.2881  12.4832  12.5122
    12.6554  14.4250

          k = 0.0500 0.0500 0.2500 (  5166 PWs)   bands (ev):

   -46.4385 -22.7282 -22.6976 -22.6710  -7.1775  -6.3404  -6.2747  -5.3406
    -5.3280  -5.3080  -5.2562  -5.1537   3.5698   6.6642   6.8521   6.9740
     8.2582   8.3452   8.8528   8.9261   9.1069   9.3543  12.5004  12.9519
    13.0216  14.4278

          k = 0.0500 0.0500 0.3500 (  5153 PWs)   bands (ev):

   -46.4382 -22.7276 -22.7133 -22.6704  -7.0380  -6.2755  -6.2311  -5.3601
    -5.3393  -5.3103  -5.3071  -5.1513   3.2938   6.3062   7.0314   7.1383
     7.9579   8.0548   8.7966   8.9030   9.2273   9.6988  12.5019  13.3659
    13.4234  13.9736

          k = 0.0500 0.0500 0.4500 (  5155 PWs)   bands (ev):

   -46.4380 -22.7272 -22.7231 -22.6700  -6.9480  -6.2256  -6.2101  -5.3876
    -5.3471  -5.3316  -5.3067  -5.1511   3.1499   6.0206   7.2201   7.3909
     7.6763   7.7372   8.7556   8.9284   9.2806  10.1214  12.4946  13.2676
    13.6109  13.6863

          k = 0.0500 0.1500 0.1500 (  5164 PWs)   bands (ev):

   -46.4386 -22.7387 -22.6813 -22.6712  -7.2235  -6.3752  -6.2942  -5.3294
    -5.3251  -5.3151  -5.1943  -5.1774   3.7121   6.6315   6.7443   7.1116
     8.1873   8.4167   8.7729   9.0384   9.1004   9.3494  12.4965  12.7667
    12.8849  14.5697

          k = 0.0500 0.1500 0.2500 (  5157 PWs)   bands (ev):

   -46.4383 -22.7381 -22.6972 -22.6706  -7.0950  -6.3255  -6.2551  -5.3459
    -5.3323  -5.3146  -5.2249  -5.1698   3.4311   6.5828   6.8555   7.0557
     7.9801   8.2213   8.6359   8.9092   9.0871   9.5048  12.7604  12.9559
    13.1890  14.6398

          k = 0.0500 0.1500 0.3500 (  5164 PWs)   bands (ev):

   -46.4380 -22.7375 -22.7129 -22.6700  -6.9632  -6.2748  -6.2116  -5.3648
    -5.3395  -5.3143  -5.2525  -5.1669   3.1945   6.2961   6.9506   7.1277
     7.7203   8.0343   8.5816   8.9312   9.0703   9.7437  12.7586  13.3630
    13.5408  14.1323

          k = 0.0500 0.1500 0.4500 (  5159 PWs)   bands (ev):

   -46.4378 -22.7371 -22.7226 -22.6697  -6.8802  -6.2428  -6.1816  -5.3801
    -5.3466  -5.3140  -5.2617  -5.1694   3.0666   6.0258   7.0693   7.2767
     7.5589   7.7624   8.6344   8.9880   9.0430   9.9344  12.7441  13.6021
    13.6581  13.7792

          k = 0.0500 0.2500 0.2500 (  5159 PWs)   bands (ev):

   -46.4380 -22.7542 -22.6965 -22.6700  -6.9617  -6.3045  -6.2125  -5.3504
    -5.3353  -5.3212  -5.2016  -5.1837   3.2208   6.4761   6.8436   6.9912
     7.7641   7.9213   8.4234   8.8321   9.2729   9.6266  12.9364  13.1729
    13.4625  14.6509

          k = 0.0500 0.2500 0.3500 (  5159 PWs)   bands (ev):

   -46.4377 -22.7535 -22.7122 -22.6694  -6.8526  -6.2708  -6.1590  -5.3595
    -5.3387  -5.3227  -5.2129  -5.1635   3.0367   6.2741   6.7179   7.0764
     7.5548   7.8787   8.2990   8.6962   9.3764   9.6407  13.1496  13.3572
    13.7314  14.4051

          k = 0.0500 0.2500 0.4500 (  5161 PWs)   bands (ev):

   -46.4375 -22.7530 -22.7218 -22.6690  -6.7905  -6.2460  -6.1191  -5.3667
    -5.3450  -5.3241  -5.2068  -5.1603   2.9321   6.0279   6.7549   7.0625
     7.4915   7.8668   8.2198   8.7076   9.3739   9.6315  13.1456  13.5918
    13.9244  14.2318

          k = 0.0500 0.3500 0.3500 (  5166 PWs)   bands (ev):

   -46.4374 -22.7694 -22.7114 -22.6688  -6.7660  -6.2304  -6.1016  -5.3579
    -5.3414  -5.3245  -5.2353  -5.1082   2.8839   6.1283   6.4339   7.0924
     7.4626   7.7391   8.1933   8.5846   9.3194   9.7066  13.3305  13.5481
    13.9318  14.6858

          k = 0.0500 0.3500 0.4500 (  5173 PWs)   bands (ev):

   -46.4372 -22.7689 -22.7211 -22.6684  -6.7384  -6.1942  -6.0502  -5.3596
    -5.3436  -5.3283  -5.2438  -5.0755   2.7987   5.9791   6.3262   7.1214
     7.3305   7.9044   8.0814   8.4854   9.1059   9.8030  13.5346  13.5794
    14.0919  14.7652

          k = 0.0500 0.4500 0.4500 (  5177 PWs)   bands (ev):

   -46.4370 -22.7787 -22.7206 -22.6680  -6.7261  -6.1337  -6.0038  -5.3612
    -5.3427  -5.3284  -5.2681  -5.0268   2.7173   5.8197   6.1956   7.1510
     7.2501   7.8979   8.1169   8.3762   8.7905   9.9751  13.5626  13.7792
    14.2105  15.0752

          k = 0.1500 0.1500 0.1500 (  5164 PWs)   bands (ev):

   -46.4384 -22.7384 -22.6811 -22.6809  -7.1485  -6.3525  -6.2720  -5.3373
    -5.3313  -5.3138  -5.1900  -5.1798   3.5701   6.6200   6.6513   7.2235
     8.0258   8.1302   8.7861   9.0921   9.1763   9.2285  12.7203  12.8744
    12.8945  15.0651

          k = 0.1500 0.1500 0.2500 (  5155 PWs)   bands (ev):

   -46.4381 -22.7377 -22.6968 -22.6804  -7.0267  -6.3145  -6.2338  -5.3524
    -5.3316  -5.3095  -5.2063  -5.1701   3.3548   6.5524   6.6556   7.0851
     7.7808   7.9228   8.7581   9.0119   9.1863   9.4024  12.8432  13.0851
    13.1827  14.8238

          k = 0.1500 0.1500 0.3500 (  5162 PWs)   bands (ev):

   -46.4378 -22.7371 -22.7125 -22.6798  -6.9057  -6.2748  -6.1911  -5.3652
    -5.3252  -5.3018  -5.2291  -5.1668   3.1592   6.2982   6.6649   6.9868
     7.5581   7.9794   8.4795   9.0843   9.2005   9.6073  12.7846  13.4216
    13.5277  14.3250

          k = 0.1500 0.1500 0.4500 (  5168 PWs)   bands (ev):

   -46.4376 -22.7367 -22.7221 -22.6794  -6.8323  -6.2496  -6.1609  -5.3706
    -5.3207  -5.2925  -5.2454  -5.1707   3.0489   6.0318   6.6653   7.0442
     7.4502   8.0945   8.2406   9.1454   9.1898   9.7103  12.7234  13.6396
    13.7593  14.0886

          k = 0.1500 0.2500 0.2500 (  5161 PWs)   bands (ev):

   -46.4378 -22.7538 -22.6961 -22.6797  -6.8914  -6.2981  -6.2160  -5.3544
    -5.3394  -5.2961  -5.1823  -5.1667   3.2136   6.4270   6.5440   6.9084
     7.4692   7.7181   8.7327   9.0047   9.3079   9.4765  12.9816  13.2055
    13.4135  14.6195

          k = 0.1500 0.2500 0.3500 (  5155 PWs)   bands (ev):

   -46.4375 -22.7531 -22.7117 -22.6791  -6.7857  -6.2838  -6.1688  -5.3574
    -5.3303  -5.2837  -5.1859  -5.1483   3.0791   6.2574   6.4961   6.6841
     7.1966   7.7532   8.6753   8.9172   9.3598   9.5012  13.0527  13.3849
    13.6644  14.5759

          k = 0.1500 0.2500 0.4500 (  5156 PWs)   bands (ev):

   -46.4373 -22.7527 -22.7214 -22.6788  -6.7267  -6.2765  -6.1292  -5.3568
    -5.3222  -5.2774  -5.1815  -5.1467   2.9974   6.0287   6.4531   6.6433
     7.1173   7.8480   8.4774   9.0070   9.2709   9.5177  13.0387  13.5871
    13.8594  14.6229

          k = 0.1500 0.3500 0.3500 (  5157 PWs)   bands (ev):

   -46.4372 -22.7690 -22.7110 -22.6785  -6.6893  -6.2606  -6.1450  -5.3534
[...]

   -46.4170 -22.7673 -22.6829 -22.6826  -6.9322  -6.4518  -6.3341  -5.1916
    -5.1908  -5.1197  -5.0025  -4.8921   3.1983   6.1414   6.1949   6.6518
     7.2491   7.3018   8.7619   9.0761   9.2912   9.3448  12.9824  13.3916
    13.5034  14.8816

          k = 0.2500 0.2500 0.3500 (  5153 PWs)   bands (ev):

   -46.4167 -22.7666 -22.6982 -22.6821  -6.8171  -6.4353  -6.3538  -5.1892
    -5.1743  -5.0885  -4.9665  -4.8799   3.1089   6.0170   6.0545   6.3676
     6.9539   7.3199   8.7329   9.1228   9.2258   9.4033  13.1241  13.4394
    13.6738  15.0694

          k = 0.2500 0.2500 0.4500 (  5140 PWs)   bands (ev):

   -46.4165 -22.7661 -22.7077 -22.6817  -6.7529  -6.4062  -6.3764  -5.1866
    -5.1630  -5.0644  -4.9410  -4.8816   3.0493   5.9070   5.9437   6.2322
     6.8503   7.3907   8.5693   9.1325   9.1806   9.4542  13.2417  13.4942
    13.8441  15.3256

          k = 0.2500 0.3500 0.3500 (  5149 PWs)   bands (ev):

   -46.4164 -22.7824 -22.6975 -22.6815  -6.7491  -6.4434  -6.2904  -5.1796
    -5.1595  -5.0659  -4.9434  -4.8418   3.1583   5.7912   5.8327   6.1907
     6.6103   7.1526   8.4451   9.2037   9.2411   9.5739  13.2272  13.6500
    13.8125  15.3228

          k = 0.2500 0.3500 0.4500 (  5156 PWs)   bands (ev):

   -46.4162 -22.7820 -22.7070 -22.6811  -6.7125  -6.4047  -6.3094  -5.1747
    -5.1458  -5.0460  -4.9191  -4.8199   3.1505   5.6889   5.7457   6.0163
     6.4730   7.1953   8.1432   9.2108   9.2392   9.6861  13.4663  13.6012
    13.9419  15.6900

          k = 0.2500 0.4500 0.4500 (  5156 PWs)   bands (ev):

   -46.4160 -22.7917 -22.7065 -22.6807  -6.7075  -6.4070  -6.2413  -5.1711
    -5.1305  -5.0328  -4.9068  -4.7823   3.2057   5.5564   5.6218   5.9045
     6.2758   7.1485   7.7964   9.2240   9.2669   9.8386  13.5392  13.7973
    14.0258  15.9384

          k = 0.3500 0.3500 0.3500 (  5151 PWs)   bands (ev):

   -46.4161 -22.7817 -22.6969 -22.6968  -6.6327  -6.4631  -6.3337  -5.1531
    -5.1521  -5.0067  -4.8756  -4.8177   3.2421   5.5787   5.6265   5.9642
     6.6071   6.6842   7.8934   9.4661   9.5022   9.6217  13.3931  13.7554
    13.7906  15.7081

          k = 0.3500 0.3500 0.4500 (  5151 PWs)   bands (ev):

   -46.4159 -22.7812 -22.7063 -22.6964  -6.5823  -6.4454  -6.3654  -5.1489
    -5.1353  -4.9645  -4.8424  -4.7994   3.2803   5.4443   5.5864   5.8030
     6.4390   6.6812   7.4561   9.5307   9.6027   9.7159  13.5963  13.7163
    13.9085  16.1076

          k = 0.3500 0.4500 0.4500 (  5148 PWs)   bands (ev):

   -46.4157 -22.7910 -22.7059 -22.6960  -6.5828  -6.4628  -6.2958  -5.1406
    -5.1256  -4.9470  -4.8096  -4.7588   3.4712   5.2787   5.3877   5.6791
     6.2653   6.6011   7.0072   9.6342   9.6524   9.8386  13.7144  13.8607
    13.9827  16.3969

          k = 0.4500 0.4500 0.4500 (  5142 PWs)   bands (ev):

   -46.4155 -22.7905 -22.7055 -22.7055  -6.5074  -6.4916  -6.3278  -5.1248
    -5.1198  -4.8923  -4.7523  -4.7443   3.6462   5.2149   5.2637   5.5761
     6.2399   6.3394   6.4048   9.8229   9.8278   9.8461  13.8754  13.9558
    13.9575  16.7887

          k =-0.0500 0.1500 0.0500 (  5151 PWs)   bands (ev):

   -46.4183 -22.7534 -22.6592 -22.6592  -7.4489  -6.5220  -6.3896  -5.1828
    -5.1820  -5.1581  -5.0875  -4.9369   4.0005   6.5073   6.5266   7.1394
     8.3151   8.3193   8.7696   8.8039   9.1035   9.1342  12.1756  13.0144
    13.0497  14.3525

          k =-0.0500 0.2500 0.0500 (  5166 PWs)   bands (ev):

   -46.4180 -22.7696 -22.6586 -22.6586  -7.3182  -6.4843  -6.3408  -5.1942
    -5.1895  -5.1572  -5.0745  -4.9787   3.6522   6.5381   6.5583   6.9241
     8.1131   8.1182   8.7587   8.8505   9.1415   9.3197  12.1775  13.3719
    13.4173  14.3593

          k =-0.0500 0.3500 0.0500 (  5153 PWs)   bands (ev):

   -46.4177 -22.7856 -22.6580 -22.6580  -7.1838  -6.4444  -6.2908  -5.2054
    -5.1967  -5.1563  -5.0615  -5.0229   3.3644   6.3089   6.6057   6.7543
     7.9491   7.9547   8.7001   8.9868   9.1817   9.7572  12.1787  13.7181
    13.7730  13.9228

          k =-0.0500 0.4500 0.0500 (  5155 PWs)   bands (ev):

   -46.4175 -22.7955 -22.6577 -22.6577  -7.0987  -6.4184  -6.2591  -5.2122
    -5.2011  -5.1558  -5.0535  -5.0516   3.2084   6.0276   6.6325   6.7702
     7.8582   7.8615   8.6617   9.0463   9.2075  10.1956  12.1778  13.2334
    13.9247  13.9965

          k = 0.1500 0.0500 0.1500 (  5164 PWs)   bands (ev):

   -46.4181 -22.7427 -22.6690 -22.6688  -7.3663  -6.5060  -6.3992  -5.2020
    -5.1835  -5.1649  -5.0756  -4.9111   3.7593   6.4944   6.7227   7.1354
     8.1292   8.1708   8.6014   8.8536   8.9905   9.3575  12.6522  12.7736
    12.8473  14.9413

          k =-0.0500 0.2500 0.1500 (  5157 PWs)   bands (ev):

   -46.4178 -22.7691 -22.6683 -22.6583  -7.2448  -6.4778  -6.3264  -5.1968
    -5.1860  -5.1640  -5.0747  -4.9559   3.5134   6.4008   6.6193   7.0585
     7.8361   8.0741   8.5007   8.8980   8.9671   9.5274  12.4575  13.3302
    13.4275  14.6750

          k = 0.2500 0.0500 0.1500 (  5157 PWs)   bands (ev):

   -46.4178 -22.7421 -22.6845 -22.6683  -7.2321  -6.4754  -6.3905  -5.2192
    -5.1824  -5.1617  -5.0599  -4.9171   3.4594   6.4668   6.7537   7.0666
     7.8280   8.0677   8.5648   8.8312   8.9861   9.5178  12.7909  12.9764
    13.0836  14.9390

          k =-0.0500 0.3500 0.1500 (  5164 PWs)   bands (ev):

   -46.4175 -22.7852 -22.6676 -22.6577  -7.1195  -6.4459  -6.2723  -5.2066
    -5.1829  -5.1635  -5.0676  -4.9842   3.2708   6.1718   6.6134   6.8887
     7.7019   7.9399   8.5039   8.9036   8.9991   9.8598  12.4496  13.6690
    13.7802  14.1526

          k = 0.3500 0.0500 0.1500 (  5164 PWs)   bands (ev):

   -46.4175 -22.7414 -22.7000 -22.6677  -7.0898  -6.4443  -6.3870  -5.2309
    -5.1773  -5.1556  -5.0429  -4.9367   3.2099   6.2099   6.7947   7.1436
     7.5493   8.0663   8.3057   8.8785   9.0339   9.7832  12.8006  13.3185
    13.4203  14.5344

          k =-0.0500 0.4500 0.1500 (  5159 PWs)   bands (ev):

   -46.4173 -22.7950 -22.6672 -22.6573  -7.0425  -6.4247  -6.2362  -5.2129
    -5.1806  -5.1631  -5.0637  -5.0022   3.1346   5.9317   6.5901   6.8813
     7.6324   7.8629   8.5423   8.8895   9.0226  10.1149  12.4396  13.6527
    13.8830  13.9989

          k = 0.4500 0.0500 0.1500 (  5159 PWs)   bands (ev):

   -46.4173 -22.7410 -22.7096 -22.6673  -6.9965  -6.4195  -6.3941  -5.2352
    -5.1738  -5.1502  -5.0202  -4.9659   3.0761   5.9676   6.9077   7.1627
     7.5317   7.7953   8.2838   8.8837   9.0636  10.0251  12.7842  13.5405
    13.6682  14.0657

          k = 0.2500 0.0500 0.2500 (  5159 PWs)   bands (ev):

   -46.4175 -22.7414 -22.6840 -22.6837  -7.1089  -6.4431  -6.3949  -5.2221
    -5.1834  -5.1442  -5.0349  -4.9214   3.2160   6.4557   6.6382   7.0557
     7.6622   7.7292   8.5816   8.7137   9.1647   9.6077  12.9559  13.0455
    13.2853  15.0452

          k =-0.0500 0.3500 0.2500 (  5159 PWs)   bands (ev):

   -46.4172 -22.7844 -22.6831 -22.6571  -7.0244  -6.4347  -6.2400  -5.2043
    -5.1777  -5.1650  -5.0724  -4.9276   3.1261   6.0292   6.6997   6.8342
     7.5393   7.6841   8.1912   8.6874   9.1873   9.8166  12.8479  13.7363
    13.8114  14.5128

          k = 0.3500 0.0500 0.2500 (  5159 PWs)   bands (ev):

   -46.4172 -22.7408 -22.6993 -22.6832  -6.9841  -6.4132  -6.3955  -5.2232
    -5.1756  -5.1202  -5.0135  -4.9383   2.9979   6.2199   6.5880   7.0473
     7.4898   7.7621   8.2862   8.7898   9.2694   9.6719  12.9876  13.3461
    13.5251  14.8078

          k =-0.0500 0.4500 0.2500 (  5161 PWs)   bands (ev):

   -46.4170 -22.7942 -22.6827 -22.6567  -6.9674  -6.4130  -6.1953  -5.2101
    -5.1745  -5.1562  -5.0777  -4.9266   3.0189   5.8048   6.6309   6.8307
     7.4785   7.6567   8.1393   8.7142   9.1920   9.8926  12.8371  13.9302
    14.0098  14.3106

          k = 0.4500 0.0500 0.2500 (  5161 PWs)   bands (ev):

   -46.4170 -22.7404 -22.7089 -22.6828  -6.9071  -6.4030  -6.3856  -5.2227
    -5.1688  -5.0961  -4.9957  -4.9652   2.8747   5.9729   6.6760   6.9304
     7.5446   7.8245   8.0273   8.8642   9.2618   9.7233  12.9792  13.5735
    13.7076  14.6022

          k = 0.3500 0.0500 0.3500 (  5166 PWs)   bands (ev):

   -46.4169 -22.7401 -22.6987 -22.6985  -6.8895  -6.3910  -6.3795  -5.2167
    -5.1624  -5.0825  -4.9843  -4.9514   2.7967   6.1276   6.3583   7.0576
     7.3731   7.6977   8.2493   8.6097   9.4480   9.5478  13.2778  13.3952
    13.6571  14.9585

          k =-0.0500 0.4500 0.3500 (  5173 PWs)   bands (ev):

   -46.4167 -22.7934 -22.6980 -22.6561  -6.9199  -6.3608  -6.1557  -5.2084
    -5.1830  -5.1479  -5.0773  -4.8576   2.9109   5.7020   6.4393   6.8600
     7.2368   7.5622   8.0496   8.4642   9.2421   9.7854  13.2000  13.9839
    14.1024  14.8805

          k = 0.4500 0.0500 0.3500 (  5173 PWs)   bands (ev):

   -46.4167 -22.7397 -22.7081 -22.6982  -6.8405  -6.3778  -6.3577  -5.2132
    -5.1493  -5.0467  -4.9772  -4.9649   2.6779   5.9163   6.3709   7.0010
     7.3232   7.8563   8.0578   8.5889   9.2599   9.6889  13.3273  13.5940
    13.7613  14.9395

          k = 0.4500 0.0500 0.4500 (  5177 PWs)   bands (ev):

   -46.4165 -22.7392 -22.7077 -22.7077  -6.8143  -6.3453  -6.3401  -5.2085
    -5.1276  -5.0123  -4.9909  -4.9507   2.5590   5.7917   6.2875   7.0938
     7.1407   7.9739   8.0756   8.3876   9.0097   9.8510  13.5886  13.6153
    13.8018  14.8981

          k =-0.1500 0.2500 0.1500 (  5155 PWs)   bands (ev):

   -46.4176 -22.7687 -22.6680 -22.6678  -7.1710  -6.4717  -6.3225  -5.2019
    -5.1850  -5.1605  -5.0607  -4.9372   3.4218   6.4000   6.4228   7.0911
     7.7326   7.8008   8.4719   8.9436   9.0949   9.4951  12.6311  13.2892
    13.4313  14.9461

          k =-0.1500 0.3500 0.1500 (  5162 PWs)   bands (ev):

   -46.4173 -22.7847 -22.6673 -22.6672  -7.0525  -6.4499  -6.2664  -5.2108
    -5.1740  -5.1523  -5.0562  -4.9564   3.2249   6.1740   6.3252   6.9055
     7.6887   7.6944   8.3601   8.9726   9.1141   9.7566  12.5894  13.6250
    13.7650  14.3679

          k =-0.1500 0.4500 0.1500 (  5168 PWs)   bands (ev):

   -46.4171 -22.7945 -22.6669 -22.6668  -6.9813  -6.4363  -6.2268  -5.2152
    -5.1697  -5.1410  -5.0569  -4.9697   3.1094   5.9274   6.2741   6.8823
     7.6490   7.6944   8.2931   8.9839   9.1211   9.9093  12.5554  13.8408
    13.9680  14.0734

          k = 0.2500 0.1500 0.2500 (  5161 PWs)   bands (ev):

   -46.4173 -22.7514 -22.6836 -22.6833  -7.0384  -6.4464  -6.3762  -5.2106
    -5.1872  -5.1359  -5.0218  -4.9093   3.2157   6.3433   6.4730   6.7763
     7.4800   7.6913   8.6716   8.8713   9.1986   9.4671  13.0173  13.1613
    13.3317  14.9708

          k =-0.1500 0.3500 0.2500 (  5155 PWs)   bands (ev):

   -46.4170 -22.7839 -22.6827 -22.6667  -6.9523  -6.4459  -6.2536  -5.2051
    -5.1785  -5.1303  -5.0391  -4.9094   3.1436   6.0229   6.2942   6.6906
     7.2188   7.6171   8.4520   8.9115   9.2413   9.6087  12.8651  13.6523
    13.7673  14.6900

          k = 0.3500 0.1500 0.2500 (  5155 PWs)   bands (ev):

   -46.4170 -22.7507 -22.6989 -22.6828  -6.9146  -6.4233  -6.3856  -5.2097
    -5.1766  -5.1078  -4.9946  -4.9165   3.0436   6.1803   6.3916   6.5872
     7.2473   7.7398   8.5709   8.8956   9.2917   9.4631  13.0496  13.3521
    13.5644  14.8931

          k =-0.1500 0.4500 0.2500 (  5156 PWs)   bands (ev):

   -46.4168 -22.7937 -22.6823 -22.6663  -6.8976  -6.4361  -6.2069  -5.2073
    -5.1728  -5.1103  -5.0455  -4.9075   3.0617   5.8179   6.1949   6.6249
     7.2007   7.5994   8.3595   8.9469   9.2443   9.6225  12.8552  13.8664
    13.9470  14.6483

          k = 0.4500 0.1500 0.2500 (  5156 PWs)   bands (ev):

   -46.4168 -22.7502 -22.7084 -22.6824  -6.8388  -6.4116  -6.3867  -5.2081
    -5.1684  -5.0823  -4.9693  -4.9393   2.9418   5.9640   6.3597   6.5484
     7.1663   7.8344   8.4114   8.9469   9.2669   9.4706  13.0457  13.5212
    13.7604  14.9089

          k = 0.3500 0.1500 0.3500 (  5157 PWs)   bands (ev):

   -46.4167 -22.7500 -22.6983 -22.6981  -6.8123  -6.4004  -6.3977  -5.2017
    -5.1602  -5.0619  -4.9620  -4.9188   2.8936   6.1100   6.2333   6.4327
     6.9499   7.7102   8.6655   8.7939   9.1649   9.5526  13.2435  13.4273
    13.6724  15.1515

          k =-0.1500 0.4500 0.3500 (  5160 PWs)   bands (ev):

   -46.4165 -22.7929 -22.6977 -22.6657  -6.8448  -6.3959  -6.1877  -5.2009
    -5.1630  -5.1050  -5.0252  -4.8432   3.0088   5.6891   6.2359   6.3868
     6.6431   7.6546   8.4588   8.7647   9.0154   9.7058  13.2105  13.8710
    14.0136  15.1805

          k = 0.4500 0.1500 0.3500 (  5160 PWs)   bands (ev):

   -46.4165 -22.7495 -22.7077 -22.6978  -6.7587  -6.4014  -6.3788  -5.1976
    -5.1461  -5.0201  -4.9469  -4.9305   2.7986   5.9063   6.2638   6.3761
     6.8093   7.7670   8.5499   8.8295   8.9509   9.6782  13.3287  13.5524
    13.7956  15.3816

          k = 0.4500 0.1500 0.4500 (  5150 PWs)   bands (ev):

   -46.4163 -22.7491 -22.7073 -22.7072  -6.7271  -6.3765  -6.3726  -5.1926
    -5.1255  -4.9717  -4.9413  -4.9307   2.7042   5.7804   6.2479   6.4384
     6.5390   7.7849   8.4773   8.7393   8.7663   9.8464  13.5543  13.5918
    13.8420  15.4881

          k =-0.2500 0.3500 0.2500 (  5153 PWs)   bands (ev):

   -46.4167 -22.7832 -22.6822 -22.6820  -6.8411  -6.4574  -6.2718  -5.1918
    -5.1740  -5.0957  -4.9878  -4.8771   3.1592   5.9363   6.0060   6.3981
     6.9958   7.2208   8.6538   9.1495   9.3009   9.4001  12.9844  13.6730
    13.7024  14.9707

          k =-0.2500 0.4500 0.2500 (  5140 PWs)   bands (ev):

   -46.4165 -22.7930 -22.6817 -22.6816  -6.7946  -6.4610  -6.2205  -5.1913
    -5.1646  -5.0738  -4.9834  -4.8688   3.1246   5.8136   5.8399   6.2630
     6.9478   7.1924   8.5168   9.1766   9.2579   9.4519  13.0246  13.8578
    13.8725  15.1248

          k = 0.3500 0.2500 0.3500 (  5149 PWs)   bands (ev):

   -46.4164 -22.7659 -22.6976 -22.6974  -6.7022  -6.4326  -6.3888  -5.1769
    -5.1567  -5.0338  -4.9203  -4.8675   3.0613   5.8904   5.9348   6.0969
     6.7429   7.1119   8.4450   9.2343   9.2585   9.5653  13.2535  13.5493
    13.7269  15.3922

          k =-0.2500 0.4500 0.3500 (  5156 PWs)   bands (ev):

   -46.4162 -22.7922 -22.6970 -22.6811  -6.7240  -6.4474  -6.2323  -5.1771
    -5.1467  -5.0483  -4.9321  -4.8180   3.1778   5.6209   5.7647   6.0078
     6.4898   7.1144   8.1750   9.2088   9.2663   9.6793  13.3122  13.8187
    13.9395  15.5821

          k = 0.4500 0.2500 0.3500 (  5156 PWs)   bands (ev):

   -46.4162 -22.7654 -22.7070 -22.6971  -6.6404  -6.4235  -6.4065  -5.1723
    -5.1415  -4.9904  -4.8956  -4.8657   3.0186   5.8040   5.8900   5.9446
     6.5818   7.1301   8.1238   9.2656   9.2776   9.6780  13.4179  13.5778
    13.8473  15.7483

          k = 0.4500 0.2500 0.4500 (  5156 PWs)   bands (ev):

   -46.4160 -22.7650 -22.7066 -22.7066  -6.5868  -6.4212  -6.4197  -5.1667
    -5.1230  -4.9365  -4.8686  -4.8637   2.9804   5.7411   5.8689   5.8729
     6.3485   7.0882   7.7294   9.3051   9.3096   9.8391  13.5975  13.6473
    13.8854  16.0769

          k =-0.3500 0.4500 0.3500 (  5151 PWs)   bands (ev):

   -46.4159 -22.7915 -22.6965 -22.6964  -6.6148  -6.4811  -6.2719  -5.1509
    -5.1369  -4.9881  -4.8480  -4.7875   3.3579   5.4502   5.4591   5.7855
     6.4087   6.6687   7.5174   9.5399   9.5607   9.7160  13.5228  13.8554
    13.9241  16.0153

          k = 0.4500 0.3500 0.4500 (  5148 PWs)   bands (ev):

   -46.4157 -22.7808 -22.7059 -22.7059  -6.4952  -6.4657  -6.4072  -5.1408
    -5.1210  -4.9104  -4.7965  -4.7891   3.3406   5.4340   5.4757   5.6835
     6.3392   6.5152   6.9408   9.6668   9.6766   9.8322  13.7507  13.8079
    13.9168  16.4849

     the Fermi energy is    10.1066 ev

!    total energy              =    -364.96268869 Ry
     Harris-Foulkes estimate   =    -364.96268869 Ry
     estimated scf accuracy    <          8.6E-11 Ry

     The total energy is the sum of the following terms:

     one-electron contribution =     -88.03497938 Ry
     hartree contribution      =      73.00740142 Ry
     xc contribution           =     -85.82985464 Ry
     ewald contribution        =    -264.11147478 Ry
     smearing contrib. (-TS)   =       0.00621870 Ry

     convergence has been achieved in   7 iterations

     Forces acting on atoms (cartesian axes, Ry/au):

     atom    1 type  1   force =     0.00000000    0.00004639    0.00000000
     atom    2 type  2   force =     0.00000000   -0.00013037    0.00000000
     atom    3 type  3   force =     0.00000000    0.00027504    0.00000000
     atom    4 type  3   force =     0.00000000   -0.00046610    0.00000000
     atom    5 type  3   force =     0.00000000    0.00027504    0.00000000

     Total force =     0.000621     Total SCF correction =     0.000006


     Computing stress (Cartesian axis) and pressure

          total   stress  (Ry/bohr**3)                   (kbar)     P=    8.97
  -0.00006028   0.00000000   0.00000000         -8.87      0.00      0.00
   0.00000000   0.00030344   0.00000000          0.00     44.64      0.00
   0.00000000   0.00000000  -0.00006028          0.00      0.00     -8.87


     bfgs converged in  21 scf cycles and  20 bfgs steps
     (criteria: energy <  1.0E-04 Ry, force <  1.0E-03 Ry/Bohr)

     End of BFGS Geometry Optimization

     Final energy   =    -364.9626886882 Ry
Begin final coordinates

ATOMIC_POSITIONS (crystal)
Pb       0.000000000   0.000000000   0.000000000    0   0   0
Ti       0.500000000   0.462516195   0.500000000
O        0.500000000   0.401605135   0.000000000
O        0.500000000  -0.089201908   0.500000000
O        0.000000000   0.401605135   0.500000000
End final coordinates



     Writing output data file PbTiO3.save/

     init_run     :     11.74s CPU     15.58s WALL (       1 calls)
     electrons    :   5396.38s CPU   7566.35s WALL (      21 calls)
     update_pot   :      7.69s CPU      8.08s WALL (      20 calls)
     forces       :    109.15s CPU    124.72s WALL (      21 calls)
     stress       :    285.29s CPU    311.39s WALL (      21 calls)

     Called by init_run:
     wfcinit      :      8.78s CPU     12.31s WALL (       1 calls)
     potinit      :      0.27s CPU      0.30s WALL (       1 calls)
     hinit0       :      1.99s CPU      2.00s WALL (       1 calls)

     Called by electrons:
     c_bands      :   4652.53s CPU   6393.60s WALL (     191 calls)
     sum_band     :    588.44s CPU    963.42s WALL (     191 calls)
     v_of_rho     :     41.60s CPU     45.24s WALL (     207 calls)
     newd         :    124.70s CPU    179.44s WALL (     207 calls)
     mix_rho      :      3.63s CPU      4.31s WALL (     191 calls)

     Called by c_bands:
     init_us_2    :     75.93s CPU     99.45s WALL (   31875 calls)
     cegterg      :   4423.13s CPU   6145.77s WALL (   14325 calls)

     Called by sum_band:
     sum_band:bec :      0.88s CPU      1.25s WALL (   14325 calls)
     addusdens    :    159.47s CPU    210.79s WALL (     191 calls)

     Called by *egterg:
     h_psi        :   2332.07s CPU   3840.88s WALL (   63485 calls)
     s_psi        :    479.13s CPU    528.20s WALL (   63485 calls)
     g_psi        :     42.43s CPU     56.20s WALL (   49085 calls)
     cdiaghg      :     79.96s CPU    109.76s WALL (   61535 calls)

     Called by h_psi:
     h_psi:pot    :   2322.52s CPU   3825.10s WALL (   63485 calls)
     h_psi:calbec :    472.21s CPU    526.70s WALL (   63485 calls)
     vloc_psi     :   1360.77s CPU   2767.61s WALL (   63485 calls)
     add_vuspsi   :    485.07s CPU    525.28s WALL (   63485 calls)

     General routines
     calbec       :    733.61s CPU    811.50s WALL (   85685 calls)
     fft          :     18.70s CPU     21.09s WALL (    3199 calls)
     ffts         :      0.48s CPU      0.73s WALL (     398 calls)
     fftw         :   1401.45s CPU   2882.95s WALL ( 2485746 calls)
     interpolate  :      1.62s CPU      2.07s WALL (     207 calls)

     Parallel routines

     PWSCF        :      1h37m CPU      2h14m WALL


   This run was terminated on:   5:14:10  15May2020            

=------------------------------------------------------------------------------=
   JOB DONE.
=------------------------------------------------------------------------------=
