
     Program PWSCF v.6.4.1 starts on 14May2020 at  4:28:31 

     This program is part of the open-source Quantum ESPRESSO suite
     for quantum simulation of materials; please cite
         "P. Giannozzi et al., J. Phys.:Condens. Matter 21 395502 (2009);
         "P. Giannozzi et al., J. Phys.:Condens. Matter 29 465901 (2017);
          URL http://www.quantum-espresso.org", 
     in publications or presentations arising from this work. More details at
     http://www.quantum-espresso.org/quote

     Parallel version (MPI), running on     1 processors

     MPI processes distributed on     1 nodes
     Reading input from PTO_7.49_10_0.451.pw.in
Warning: card  &CELL ignored
Warning: card   CELL_DYNAMICS = 'BFGS', ignored
Warning: card  / ignored

     Current dimensions of program PWSCF are:
     Max number of different atomic species (ntypx) = 10
     Max number of k-points (npk) =  40000
     Max angular momentum in pseudopotentials (lmaxx) =  3
     Message from routine read_upf::
     Pseudo file Pb.pbe-dn-rrkjus_psl.0.2.2.UPF has been fixed on the fly.
To avoid this message in the future, permanently fix 
 your pseudo files following these instructions: 
https://gitlab.com/QEF/q-e/blob/master/upftools/how_to_fix_upf.md
     Message from routine read_upf::
     Pseudo file O.pbe-n-rrkjus_psl.0.1.UPF has been fixed on the fly.
To avoid this message in the future, permanently fix 
 your pseudo files following these instructions: 
https://gitlab.com/QEF/q-e/blob/master/upftools/how_to_fix_upf.md
               file Pb.pbe-dn-rrkjus_psl.0.2.2.UPF: wavefunction(s)  6S renormalized

     Subspace diagonalization in iterative solution of the eigenvalue problem:
     a serial algorithm will be used


     G-vector sticks info
     --------------------
     sticks:   dense  smooth     PW     G-vecs:    dense   smooth      PW
     Sum        3569    1433    421               160467    40651    6235



     bravais-lattice index     =            1
     lattice parameter (alat)  =       7.4900  a.u.
     unit-cell volume          =     420.1897 (a.u.)^3
     number of atoms/cell      =            5
     number of atomic types    =            3
     number of electrons       =        44.00
     number of Kohn-Sham states=           26
     kinetic-energy cutoff     =      80.0000  Ry
     charge density cutoff     =     800.0000  Ry
     convergence threshold     =      1.0E-08
     mixing beta               =       0.7000
     number of iterations used =            8  plain     mixing
     Exchange-correlation      = PBE ( 1  4  3  4 0 0)
     nstep                     =           50


     celldm(1)=   7.490000  celldm(2)=   0.000000  celldm(3)=   0.000000
     celldm(4)=   0.000000  celldm(5)=   0.000000  celldm(6)=   0.000000

     crystal axes: (cart. coord. in units of alat)
               a(1) = (   1.000000   0.000000   0.000000 )  
               a(2) = (   0.000000   1.000000   0.000000 )  
               a(3) = (   0.000000   0.000000   1.000000 )  

     reciprocal axes: (cart. coord. in units 2 pi/alat)
               b(1) = (  1.000000  0.000000  0.000000 )  
               b(2) = (  0.000000  1.000000  0.000000 )  
               b(3) = (  0.000000  0.000000  1.000000 )  


     PseudoPot. # 1 for Pb read from file:
     ./Pb.pbe-dn-rrkjus_psl.0.2.2.UPF
     MD5 check sum: 7afc420059c37d6888fc09c0f121e83f
     Pseudo is Ultrasoft + core correction, Zval = 14.0
     Generated using "atomic" code by A. Dal Corso v.5.0.2 svn rev. 9415
     Using radial grid of 1281 points,  6 beta functions with: 
                l(1) =   0
                l(2) =   0
                l(3) =   1
                l(4) =   1
                l(5) =   2
                l(6) =   2
     Q(r) pseudized with 0 coefficients 


     PseudoPot. # 2 for Ti read from file:
     ./Ti.pbe-sp-van_ak.UPF
     MD5 check sum: 8e4df49b7f0d34bbd5052bf3f5ea0213
     Pseudo is Ultrasoft, Zval = 12.0
     Generated by new atomic code, or converted to UPF format
     Using radial grid of  851 points,  6 beta functions with: 
                l(1) =   0
                l(2) =   0
                l(3) =   1
                l(4) =   1
                l(5) =   2
                l(6) =   2
     Q(r) pseudized with  8 coefficients,  rinner =    1.000   1.000   1.000
                                                       1.000   1.000

     PseudoPot. # 3 for O  read from file:
     ./O.pbe-n-rrkjus_psl.0.1.UPF
     MD5 check sum: e057bbcf3229fb5d8c36c0c92f9568b4
     Pseudo is Ultrasoft + core correction, Zval =  6.0
     Generated using "atomic" code by A. Dal Corso v.5.0.2 svn rev. 9415
     Using radial grid of 1095 points,  4 beta functions with: 
                l(1) =   0
                l(2) =   0
                l(3) =   1
                l(4) =   1
     Q(r) pseudized with 0 coefficients 


     atomic species   valence    mass     pseudopotential
        Pb            14.00   207.20000     Pb( 1.00)
        Ti            12.00    47.87000     Ti( 1.00)
        O              6.00    16.00000     O ( 1.00)

      8 Sym. Ops. (no inversion) found



   Cartesian axes

     site n.     atom                  positions (alat units)
         1           Pb  tau(   1) = (   0.0000000   0.0000000   0.0000000  )
         2           Ti  tau(   2) = (   0.5000000   0.4510000   0.5000000  )
         3           O   tau(   3) = (   0.5000000   0.5000000   0.0000000  )
         4           O   tau(   4) = (   0.5000000   0.0000000   0.5000000  )
         5           O   tau(   5) = (   0.0000000   0.5000000   0.5000000  )

     number of k points=    75  Marzari-Vanderbilt smearing, width (Ry)=  0.0250
                       cart. coord. in units 2pi/alat
        k(    1) = (   0.0500000   0.0500000   0.0500000), wk =   0.0160000
        k(    2) = (   0.0500000   0.0500000   0.1500000), wk =   0.0320000
        k(    3) = (   0.0500000   0.0500000   0.2500000), wk =   0.0320000
        k(    4) = (   0.0500000   0.0500000   0.3500000), wk =   0.0320000
        k(    5) = (   0.0500000   0.0500000   0.4500000), wk =   0.0320000
        k(    6) = (   0.0500000   0.1500000   0.1500000), wk =   0.0320000
        k(    7) = (   0.0500000   0.1500000   0.2500000), wk =   0.0320000
        k(    8) = (   0.0500000   0.1500000   0.3500000), wk =   0.0320000
        k(    9) = (   0.0500000   0.1500000   0.4500000), wk =   0.0320000
        k(   10) = (   0.0500000   0.2500000   0.2500000), wk =   0.0320000
        k(   11) = (   0.0500000   0.2500000   0.3500000), wk =   0.0320000
        k(   12) = (   0.0500000   0.2500000   0.4500000), wk =   0.0320000
        k(   13) = (   0.0500000   0.3500000   0.3500000), wk =   0.0320000
        k(   14) = (   0.0500000   0.3500000   0.4500000), wk =   0.0320000
        k(   15) = (   0.0500000   0.4500000   0.4500000), wk =   0.0320000
        k(   16) = (   0.1500000   0.1500000   0.1500000), wk =   0.0160000
        k(   17) = (   0.1500000   0.1500000   0.2500000), wk =   0.0320000
        k(   18) = (   0.1500000   0.1500000   0.3500000), wk =   0.0320000
        k(   19) = (   0.1500000   0.1500000   0.4500000), wk =   0.0320000
        k(   20) = (   0.1500000   0.2500000   0.2500000), wk =   0.0320000
        k(   21) = (   0.1500000   0.2500000   0.3500000), wk =   0.0320000
        k(   22) = (   0.1500000   0.2500000   0.4500000), wk =   0.0320000
        k(   23) = (   0.1500000   0.3500000   0.3500000), wk =   0.0320000
        k(   24) = (   0.1500000   0.3500000   0.4500000), wk =   0.0320000
        k(   25) = (   0.1500000   0.4500000   0.4500000), wk =   0.0320000
        k(   26) = (   0.2500000   0.2500000   0.2500000), wk =   0.0160000
        k(   27) = (   0.2500000   0.2500000   0.3500000), wk =   0.0320000
        k(   28) = (   0.2500000   0.2500000   0.4500000), wk =   0.0320000
        k(   29) = (   0.2500000   0.3500000   0.3500000), wk =   0.0320000
        k(   30) = (   0.2500000   0.3500000   0.4500000), wk =   0.0320000
        k(   31) = (   0.2500000   0.4500000   0.4500000), wk =   0.0320000
        k(   32) = (   0.3500000   0.3500000   0.3500000), wk =   0.0160000
        k(   33) = (   0.3500000   0.3500000   0.4500000), wk =   0.0320000
        k(   34) = (   0.3500000   0.4500000   0.4500000), wk =   0.0320000
        k(   35) = (   0.4500000   0.4500000   0.4500000), wk =   0.0160000
        k(   36) = (  -0.0500000   0.1500000   0.0500000), wk =   0.0160000
        k(   37) = (  -0.0500000   0.2500000   0.0500000), wk =   0.0160000
        k(   38) = (  -0.0500000   0.3500000   0.0500000), wk =   0.0160000
        k(   39) = (  -0.0500000   0.4500000   0.0500000), wk =   0.0160000
        k(   40) = (   0.1500000   0.0500000   0.1500000), wk =   0.0160000
        k(   41) = (  -0.0500000   0.2500000   0.1500000), wk =   0.0320000
        k(   42) = (   0.2500000   0.0500000   0.1500000), wk =   0.0320000
        k(   43) = (  -0.0500000   0.3500000   0.1500000), wk =   0.0320000
        k(   44) = (   0.3500000   0.0500000   0.1500000), wk =   0.0320000
        k(   45) = (  -0.0500000   0.4500000   0.1500000), wk =   0.0320000
        k(   46) = (   0.4500000   0.0500000   0.1500000), wk =   0.0320000
        k(   47) = (   0.2500000   0.0500000   0.2500000), wk =   0.0160000
        k(   48) = (  -0.0500000   0.3500000   0.2500000), wk =   0.0320000
        k(   49) = (   0.3500000   0.0500000   0.2500000), wk =   0.0320000
        k(   50) = (  -0.0500000   0.4500000   0.2500000), wk =   0.0320000
        k(   51) = (   0.4500000   0.0500000   0.2500000), wk =   0.0320000
        k(   52) = (   0.3500000   0.0500000   0.3500000), wk =   0.0160000
        k(   53) = (  -0.0500000   0.4500000   0.3500000), wk =   0.0320000
        k(   54) = (   0.4500000   0.0500000   0.3500000), wk =   0.0320000
        k(   55) = (   0.4500000   0.0500000   0.4500000), wk =   0.0160000
        k(   56) = (  -0.1500000   0.2500000   0.1500000), wk =   0.0160000
        k(   57) = (  -0.1500000   0.3500000   0.1500000), wk =   0.0160000
        k(   58) = (  -0.1500000   0.4500000   0.1500000), wk =   0.0160000
        k(   59) = (   0.2500000   0.1500000   0.2500000), wk =   0.0160000
        k(   60) = (  -0.1500000   0.3500000   0.2500000), wk =   0.0320000
        k(   61) = (   0.3500000   0.1500000   0.2500000), wk =   0.0320000
        k(   62) = (  -0.1500000   0.4500000   0.2500000), wk =   0.0320000
        k(   63) = (   0.4500000   0.1500000   0.2500000), wk =   0.0320000
        k(   64) = (   0.3500000   0.1500000   0.3500000), wk =   0.0160000
        k(   65) = (  -0.1500000   0.4500000   0.3500000), wk =   0.0320000
        k(   66) = (   0.4500000   0.1500000   0.3500000), wk =   0.0320000
        k(   67) = (   0.4500000   0.1500000   0.4500000), wk =   0.0160000
        k(   68) = (  -0.2500000   0.3500000   0.2500000), wk =   0.0160000
        k(   69) = (  -0.2500000   0.4500000   0.2500000), wk =   0.0160000
        k(   70) = (   0.3500000   0.2500000   0.3500000), wk =   0.0160000
        k(   71) = (  -0.2500000   0.4500000   0.3500000), wk =   0.0320000
        k(   72) = (   0.4500000   0.2500000   0.3500000), wk =   0.0320000
        k(   73) = (   0.4500000   0.2500000   0.4500000), wk =   0.0160000
        k(   74) = (  -0.3500000   0.4500000   0.3500000), wk =   0.0160000
        k(   75) = (   0.4500000   0.3500000   0.4500000), wk =   0.0160000

     Dense  grid:   160467 G-vectors     FFT dimensions: (  72,  72,  72)

     Smooth grid:    40651 G-vectors     FFT dimensions: (  45,  45,  45)

     Estimated max dynamical RAM per process >     759.22 MB

     Check: negative core charge=   -0.000006

     Initial potential from superposition of free atoms

     starting charge   42.99760, renormalised to   44.00000
     Starting wfcs are   31 randomized atomic wfcs

     total cpu time spent up to now is       16.4 secs

     Self-consistent Calculation

     iteration #  1     ecut=    80.00 Ry     beta= 0.70
     Davidson diagonalization with overlap
     ethr =  1.00E-02,  avg # of iterations =  2.0

     total cpu time spent up to now is       46.3 secs

     total energy              =    -364.40392305 Ry
     Harris-Foulkes estimate   =    -365.28705986 Ry
     estimated scf accuracy    <       1.10889054 Ry

     iteration #  2     ecut=    80.00 Ry     beta= 0.70
     Davidson diagonalization with overlap
     ethr =  2.52E-03,  avg # of iterations =  4.1

     total cpu time spent up to now is       91.6 secs

     total energy              =    -363.40476197 Ry
     Harris-Foulkes estimate   =    -365.74156581 Ry
     estimated scf accuracy    <       8.48088328 Ry

     iteration #  3     ecut=    80.00 Ry     beta= 0.70
     Davidson diagonalization with overlap
     ethr =  2.52E-03,  avg # of iterations =  4.9

     total cpu time spent up to now is      137.1 secs

     total energy              =    -364.92931244 Ry
     Harris-Foulkes estimate   =    -365.09615914 Ry
     estimated scf accuracy    <       0.45377529 Ry

     iteration #  4     ecut=    80.00 Ry     beta= 0.70
     Davidson diagonalization with overlap
     ethr =  1.03E-03,  avg # of iterations =  3.2

     total cpu time spent up to now is      166.9 secs

     total energy              =    -364.91598337 Ry
     Harris-Foulkes estimate   =    -364.96291144 Ry
     estimated scf accuracy    <       0.15913661 Ry

     iteration #  5     ecut=    80.00 Ry     beta= 0.70
     Davidson diagonalization with overlap
     ethr =  3.62E-04,  avg # of iterations =  4.4

     total cpu time spent up to now is      205.0 secs

     total energy              =    -364.95335007 Ry
     Harris-Foulkes estimate   =    -364.95359656 Ry
     estimated scf accuracy    <       0.00145233 Ry

     iteration #  6     ecut=    80.00 Ry     beta= 0.70
     Davidson diagonalization with overlap
     ethr =  3.30E-06,  avg # of iterations =  4.6

     total cpu time spent up to now is      253.0 secs

     total energy              =    -364.95369980 Ry
     Harris-Foulkes estimate   =    -364.95417385 Ry
     estimated scf accuracy    <       0.00220674 Ry

     iteration #  7     ecut=    80.00 Ry     beta= 0.70
     Davidson diagonalization with overlap
     ethr =  3.30E-06,  avg # of iterations =  2.5

     total cpu time spent up to now is      283.5 secs

     total energy              =    -364.95363688 Ry
     Harris-Foulkes estimate   =    -364.95389985 Ry
     estimated scf accuracy    <       0.00068888 Ry

     iteration #  8     ecut=    80.00 Ry     beta= 0.70
     Davidson diagonalization with overlap
     ethr =  1.57E-06,  avg # of iterations =  3.5

     total cpu time spent up to now is      316.9 secs

     total energy              =    -364.95377948 Ry
     Harris-Foulkes estimate   =    -364.95378700 Ry
     estimated scf accuracy    <       0.00003540 Ry

     iteration #  9     ecut=    80.00 Ry     beta= 0.70
     Davidson diagonalization with overlap
     ethr =  8.05E-08,  avg # of iterations =  2.7

     total cpu time spent up to now is      352.0 secs

     total energy              =    -364.95377672 Ry
     Harris-Foulkes estimate   =    -364.95378668 Ry
     estimated scf accuracy    <       0.00002746 Ry

     iteration # 10     ecut=    80.00 Ry     beta= 0.70
     Davidson diagonalization with overlap
     ethr =  6.24E-08,  avg # of iterations =  2.5

     total cpu time spent up to now is      382.3 secs

     total energy              =    -364.95377963 Ry
     Harris-Foulkes estimate   =    -364.95378007 Ry
     estimated scf accuracy    <       0.00000132 Ry

     iteration # 11     ecut=    80.00 Ry     beta= 0.70
     Davidson diagonalization with overlap
     ethr =  3.00E-09,  avg # of iterations =  3.7

     total cpu time spent up to now is      424.6 secs

     total energy              =    -364.95378035 Ry
     Harris-Foulkes estimate   =    -364.95378039 Ry
     estimated scf accuracy    <       0.00000014 Ry

     iteration # 12     ecut=    80.00 Ry     beta= 0.70
     Davidson diagonalization with overlap
     ethr =  3.16E-10,  avg # of iterations =  2.5

     total cpu time spent up to now is      454.3 secs

     total energy              =    -364.95378036 Ry
     Harris-Foulkes estimate   =    -364.95378037 Ry
     estimated scf accuracy    <       0.00000002 Ry

     iteration # 13     ecut=    80.00 Ry     beta= 0.70
     Davidson diagonalization with overlap
     ethr =  3.59E-11,  avg # of iterations =  3.6

     total cpu time spent up to now is      493.8 secs

     End of self-consistent calculation

          k = 0.0500 0.0500 0.0500 (  5047 PWs)   bands (ev):

   -46.0510 -22.4050 -22.2943 -22.2943  -7.2256  -6.2446  -6.1215  -5.0670
    -5.0480  -5.0477  -4.9110  -4.8939   4.4524   6.8131   6.8621   7.0059
     8.7235   8.7492   9.1630   9.2426   9.5108   9.5348  12.5216  13.0239
    13.0339  14.7320

          k = 0.0500 0.0500 0.1500 (  5074 PWs)   bands (ev):

   -46.0508 -22.4046 -22.3050 -22.2939  -7.1454  -6.2099  -6.0919  -5.0747
    -5.0558  -5.0473  -4.9411  -4.8931   4.1564   6.8691   6.9474   7.1800
     8.5202   8.7018   9.0947   9.1681   9.3757   9.5075  12.8379  13.0337
    13.1080  14.9422

          k = 0.0500 0.0500 0.2500 (  5093 PWs)   bands (ev):

   -46.0505 -22.4039 -22.3221 -22.2933  -7.0118  -6.1485  -6.0450  -5.0874
    -5.0687  -5.0465  -4.9974  -4.8886   3.7880   6.8833   7.0519   7.2041
     8.4184   8.5167   9.0030   9.0908   9.2941   9.5714  13.0342  13.2986
    13.4198  14.9439

          k = 0.0500 0.0500 0.3500 (  5090 PWs)   bands (ev):

   -46.0501 -22.4033 -22.3392 -22.2927  -6.8728  -6.0764  -6.0021  -5.1054
    -5.0841  -5.0521  -5.0456  -4.8858   3.4989   6.5424   7.2328   7.3670
     8.1652   8.2845   8.9344   9.0085   9.3877   9.9433  13.0347  13.7149
    13.8132  14.2531

          k = 0.0500 0.0500 0.4500 (  5073 PWs)   bands (ev):

   -46.0499 -22.4029 -22.3497 -22.2923  -6.7837  -6.0181  -5.9849  -5.1321
    -5.0957  -5.0725  -5.0451  -4.8853   3.3483   6.2676   7.4221   7.6175
     7.8867   7.9926   8.9171   8.9837   9.4403  10.3828  13.0168  13.5437
    13.9611  14.0872

          k = 0.0500 0.1500 0.1500 (  5079 PWs)   bands (ev):

   -46.0506 -22.4155 -22.3045 -22.2935  -7.0513  -6.1893  -6.0641  -5.0747
    -5.0667  -5.0542  -4.9323  -4.9144   3.9340   6.8251   6.9269   7.3502
     8.3034   8.5295   8.9390   9.2216   9.3374   9.6027  12.8379  13.2771
    13.3350  15.0410

          k = 0.0500 0.1500 0.2500 (  5077 PWs)   bands (ev):

   -46.0503 -22.4148 -22.3216 -22.2929  -6.9221  -6.1358  -6.0245  -5.0907
    -5.0768  -5.0537  -4.9638  -4.9050   3.6394   6.7846   7.0476   7.2863
     8.1682   8.3762   8.8183   9.0761   9.2679   9.7574  13.2511  13.3230
    13.5907  15.0740

          k = 0.0500 0.1500 0.3500 (  5080 PWs)   bands (ev):

   -46.0499 -22.4141 -22.3387 -22.2923  -6.7897  -6.0807  -5.9811  -5.1095
    -5.0866  -5.0533  -4.9905  -4.9016   3.3923   6.5243   7.1613   7.3352
     7.9352   8.2279   8.7646   9.0518   9.2480   9.9992  13.2705  13.7083
    13.9316  14.4197

          k = 0.0500 0.1500 0.4500 (  5079 PWs)   bands (ev):

   -46.0497 -22.4137 -22.3491 -22.2919  -6.7064  -6.0460  -5.9515  -5.1243
    -5.0953  -5.0530  -4.9991  -4.9042   3.2589   6.2702   7.2752   7.4990
     7.7605   7.9795   8.7890   9.1193   9.2175  10.1944  13.2495  13.9247
    13.9603  14.1764

          k = 0.0500 0.2500 0.2500 (  5076 PWs)   bands (ev):

   -46.0499 -22.4323 -22.3209 -22.2922  -6.7751  -6.1190  -5.9816  -5.0949
    -5.0814  -5.0614  -4.9398  -4.9178   3.4140   6.6433   7.0573   7.1909
     7.9542   8.1083   8.5871   9.0698   9.4415   9.9093  13.2783  13.6627
    13.8625  15.0096

          k = 0.0500 0.2500 0.3500 (  5080 PWs)   bands (ev):

   -46.0496 -22.4316 -22.3378 -22.2916  -6.6630  -6.0847  -5.9284  -5.1048
    -5.0856  -5.0627  -4.9498  -4.8960   3.2231   6.4777   6.9479   7.2587
     7.7401   8.0846   8.5001   8.8757   9.5482   9.9163  13.6210  13.7144
    14.1152  14.7180

          k = 0.0500 0.2500 0.4500 (  5084 PWs)   bands (ev):

   -46.0493 -22.4311 -22.3483 -22.2912  -6.5982  -6.0631  -5.8865  -5.1109
    -5.0937  -5.0638  -4.9428  -4.8923   3.1149   6.2636   6.9681   7.2667
     7.6357   8.0933   8.4457   8.8588   9.5694   9.8793  13.6338  13.9272
    14.3098  14.5294

          k = 0.0500 0.3500 0.3500 (  5079 PWs)   bands (ev):

   -46.0492 -22.4489 -22.3370 -22.2909  -6.5584  -6.0557  -5.8683  -5.1037
    -5.0884  -5.0656  -4.9727  -4.8373   3.0594   6.2818   6.6998   7.2418
     7.6599   7.9433   8.3802   8.8330   9.5373   9.9473  13.6623  14.0252
    14.3039  15.0389

          k = 0.0500 0.3500 0.4500 (  5079 PWs)   bands (ev):

   -46.0490 -22.4484 -22.3474 -22.2905  -6.5283  -6.0240  -5.8141  -5.1047
    -5.0924  -5.0686  -4.9806  -4.8027   2.9728   6.1790   6.5529   7.3218
     7.4669   8.1229   8.2959   8.7042   9.3488  10.0099  13.8959  14.0202
    14.4674  15.0892

          k = 0.0500 0.4500 0.4500 (  5100 PWs)   bands (ev):

   -46.0488 -22.4590 -22.3469 -22.2901  -6.5090  -5.9673  -5.7649  -5.1074
    -5.0918  -5.0689  -5.0048  -4.7510   2.8864   5.9849   6.4446   7.2909
     7.4625   8.0510   8.3516   8.6431   9.0336  10.1855  13.8773  14.2543
    14.5752  15.4596

          k = 0.1500 0.1500 0.1500 (  5095 PWs)   bands (ev):

   -46.0504 -22.4151 -22.3043 -22.3040  -6.9766  -6.1638  -6.0411  -5.0830
    -5.0722  -5.0540  -4.9299  -4.9148   3.7861   6.7918   6.8513   7.4576
     8.1592   8.3176   8.8926   9.2872   9.4428   9.4785  13.0614  13.3129
    13.3521  15.5233

          k = 0.1500 0.1500 0.2500 (  5084 PWs)   bands (ev):

   -46.0500 -22.4144 -22.3212 -22.3035  -6.8559  -6.1202  -6.0020  -5.0968
    -5.0738  -5.0506  -4.9464  -4.9051   3.5614   6.7397   6.8415   7.3079
     7.9510   8.1354   8.9326   9.2102   9.3767   9.6685  13.2730  13.4396
    13.5859  15.1374

          k = 0.1500 0.1500 0.3500 (  5082 PWs)   bands (ev):

   -46.0497 -22.4137 -22.3382 -22.3028  -6.7367  -6.0733  -5.9592  -5.1091
    -5.0665  -5.0450  -4.9697  -4.9016   3.3570   6.5225   6.8459   7.1870
     7.7581   8.1798   8.7145   9.2383   9.3860   9.8754  13.2186  13.7579
    13.9220  14.6320

          k = 0.1500 0.1500 0.4500 (  5084 PWs)   bands (ev):

   -46.0495 -22.4132 -22.3486 -22.3024  -6.6648  -6.0428  -5.9294  -5.1140
    -5.0606  -5.0387  -4.9855  -4.9054   3.2416   6.2760   6.8443   7.2284
     7.6685   8.2915   8.4684   9.3137   9.3682   9.9800  13.1519  13.9721
    14.1589  14.3891

          k = 0.1500 0.2500 0.2500 (  5081 PWs)   bands (ev):

   -46.0497 -22.4319 -22.3204 -22.3028  -6.7065  -6.1092  -5.9840  -5.0989
    -5.0835  -5.0372  -4.9212  -4.9000   3.4076   6.5831   6.7053   7.1356
     7.6767   7.9645   8.8473   9.2694   9.4880   9.7620  13.3121  13.6420
    13.8164  14.9474

          k = 0.1500 0.2500 0.3500 (  5080 PWs)   bands (ev):

   -46.0493 -22.4311 -22.3374 -22.3021  -6.6004  -6.0912  -5.9372  -5.1018
    -5.0726  -5.0279  -4.9235  -4.8804   3.2676   6.4487   6.6668   6.9020
     7.3769   8.0134   8.9087   9.0745   9.5527   9.7606  13.4524  13.7427
    14.0567  14.9048

          k = 0.1500 0.2500 0.4500 (  5077 PWs)   bands (ev):

   -46.0491 -22.4306 -22.3478 -22.3017  -6.5404  -6.0839  -5.8962  -5.1004
    -5.0624  -5.0260  -4.9165  -4.8788   3.1825   6.2621   6.6372   6.8235
     7.2851   8.1111   8.7337   9.1548   9.4895   9.7360  13.4694  13.9144
    14.2547  14.9311

          k = 0.1500 0.3500 0.3500 (  5081 PWs)   bands (ev):

   -46.0490 -22.4484 -22.3366 -22.3014  -6.4830  -6.0816  -5.9126  -5.0987
    -5.0660  -5.0066  -4.9307  -4.8217   3.1639   6.2436   6.5789   6.6686
     7.0948   7.9843   8.7551   9.1149   9.4003   9.8953  13.5749  13.9295
    14.2220  15.2113

          k = 0.1500 0.3500 0.4500 (  5079 PWs)   bands (ev):

   -46.0488 -22.4479 -22.3470 -22.3010  -6.4521  -6.0724  -5.8630  -5.0943
    -5.0465  -5.0119  -4.9323  -4.7873   3.1072   6.1616   6.4746   6.6359
     6.8873   8.0573   8.7164   9.0079   9.1909   9.9970  13.8171  13.9191
    14.3725  15.4278

          k = 0.1500 0.4500 0.4500 (  5073 PWs)   bands (ev):

   -46.0486 -22.4586 -22.3464 -22.3006  -6.4275  -6.0281  -5.8433  -5.0918
    -5.0279  -4.9947  -4.9565  -4.7343   3.0536   5.9635   6.3976   6.6218
     6.7604   8.0589   8.4607   8.9129   9.1409  10.1648  13.8656  14.1269
    14.4702  15.7650

          k = 0.2500 0.2500 0.2500 (  5070 PWs)   bands (ev):

   -46.0493 -22.4312 -22.3199 -22.3196  -6.6044  -6.0907  -5.9792  -5.0882
    -5.0836  -5.0065  -4.8984  -4.8735   3.3787   6.3975   6.4896   6.9774
     7.4592   7.5451   9.0273   9.5059   9.5144   9.6511  13.3126  13.7836
    13.7924  14.9790

          k = 0.2500 0.2500 0.3500 (  5072 PWs)   bands (ev):

   -46.0490 -22.4304 -22.3366 -22.3190  -6.5193  -6.0769  -5.9496  -5.0824
    -5.0673  -4.9706  -4.8812  -4.8552   3.3282   6.2680   6.3436   6.6600
     7.1849   7.5104   8.9062   9.4321   9.5452   9.7953  13.3911  13.8335
    14.0418  15.1792

          k = 0.2500 0.2500 0.4500 (  5073 PWs)   bands (ev):

   -46.0488 -22.4299 -22.3470 -22.3186  -6.4777  -6.0745  -5.9124  -5.0780
    -5.0552  -4.9364  -4.8755  -4.8518   3.2880   6.1764   6.2602   6.4386
     7.1165   7.5515   8.6855   9.4566   9.4996   9.8536  13.5088  13.9103
    14.2368  15.4200

          k = 0.2500 0.3500 0.3500 (  5057 PWs)   bands (ev):

   -46.0487 -22.4477 -22.3359 -22.3183  -6.3755  -6.1038  -5.9727  -5.0753
    -5.0484  -4.9307  -4.8550  -4.7921   3.3449   6.0173   6.1791   6.4395
     6.8764   7.3952   8.4503   9.5068   9.7130   9.8867  13.5423  13.9759
    14.1731  15.5125

          k = 0.2500 0.3500 0.4500 (  5063 PWs)   bands (ev):

   -46.0484 -22.4472 -22.3462 -22.3179  -6.3461  -6.1190  -5.9304  -5.0684
    -5.0317  -4.9056  -4.8428  -4.7582   3.3563   6.0106   6.0550   6.2476
     6.6858   7.4230   8.0969   9.5233   9.7022   9.9997  13.7925  13.9560
    14.3174  15.8482

          k = 0.2500 0.4500 0.4500 (  5070 PWs)   bands (ev):

   -46.0482 -22.4579 -22.3458 -22.3175  -6.2963  -6.1086  -5.9419  -5.0643
    -5.0135  -4.8851  -4.8248  -4.7027   3.3833   5.8215   6.0724   6.1221
     6.5018   7.3961   7.6365   9.5187   9.7483  10.1458  13.9283  14.0990
    14.4066  16.1830

          k = 0.3500 0.3500 0.3500 (  5055 PWs)   bands (ev):

   -46.0483 -22.4470 -22.3352 -22.3351  -6.3145  -6.0878  -6.0098  -5.0510
    -5.0365  -4.8578  -4.7856  -4.7553   3.5389   5.7576   5.8689   6.2967
     6.8260   6.8919   7.8183   9.7803   9.8806  10.0303  13.7103  14.1471
    14.1492  15.8807

          k = 0.3500 0.3500 0.4500 (  5056 PWs)   bands (ev):

   -46.0481 -22.4465 -22.3455 -22.3347  -6.3072  -6.0869  -5.9881  -5.0406
    -5.0255  -4.8072  -4.7566  -4.7239   3.6612   5.6629   5.7170   6.1349
     6.6539   6.8728   7.3337   9.8362   9.9546  10.1464  13.9454  14.0999
    14.3075  16.2569

          k = 0.3500 0.4500 0.4500 (  5051 PWs)   bands (ev):

   -46.0479 -22.4571 -22.3451 -22.3343  -6.2008  -6.1406  -6.0213  -5.0371
    -5.0093  -4.7799  -4.7080  -4.6644   3.8537   5.4944   5.6589   5.9755
     6.4669   6.7065   6.8449   9.9306  10.1218  10.1476  14.1035  14.2174
    14.3781  16.6181

          k = 0.4500 0.4500 0.4500 (  5034 PWs)   bands (ev):

   -46.0477 -22.4567 -22.3446 -22.3446  -6.2263  -6.0753  -6.0608  -5.0220
    -5.0056  -4.7175  -4.6424  -4.6362   4.3507   5.3170   5.4048   5.8875
     5.9478   6.4501   6.5797  10.1149  10.1282  10.3092  14.2793  14.3539
    14.3572  16.9717

          k =-0.0500 0.1500 0.0500 (  5074 PWs)   bands (ev):

   -46.0508 -22.4159 -22.2939 -22.2939  -7.1296  -6.2214  -6.0873  -5.0665
    -5.0570  -5.0544  -4.9297  -4.9068   4.1483   6.8596   6.8601   7.1912
     8.5453   8.5678   9.0977   9.1491   9.5411   9.5636  12.5234  13.2668
    13.2857  14.7345

          k =-0.0500 0.2500 0.0500 (  5093 PWs)   bands (ev):

   -46.0505 -22.4336 -22.2933 -22.2932  -6.9655  -6.1882  -6.0268  -5.0740
    -5.0658  -5.0640  -4.9905  -4.9019   3.7642   6.8270   6.9374   7.1152
     8.3058   8.3235   9.0988   9.2185   9.6137   9.6769  12.5261  13.6442
    13.6714  14.7390

          k =-0.0500 0.3500 0.0500 (  5090 PWs)   bands (ev):

   -46.0501 -22.4511 -22.2926 -22.2926  -6.7854  -6.1646  -5.9573  -5.1043
    -5.0729  -5.0646  -5.0471  -4.8993   3.4581   6.4537   7.0202   7.1563
     8.0941   8.0962   9.0376   9.4578   9.6676  10.0548  12.5277  14.0084
    14.0413  14.3458

          k =-0.0500 0.4500 0.0500 (  5073 PWs)   bands (ev):

   -46.0499 -22.4619 -22.2922 -22.2922  -6.6609  -6.1598  -5.9077  -5.1426
    -5.0775  -5.0690  -5.0641  -4.8990   3.2962   6.1492   7.0755   7.2416
     7.9405   7.9742   8.9978   9.5497   9.7030  10.5113  12.5259  13.6040
    14.2277  14.2691

          k = 0.1500 0.0500 0.1500 (  5079 PWs)   bands (ev):

   -46.0506 -22.4042 -22.3047 -22.3044  -7.0698  -6.1812  -6.0607  -5.0822
    -5.0562  -5.0538  -4.9421  -4.9070   3.9445   6.8200   7.0141   7.3273
     8.3360   8.4914   8.9628   9.2058   9.4055   9.5197  13.0419  13.1178
    13.1395  15.2936

          k =-0.0500 0.2500 0.1500 (  5077 PWs)   bands (ev):

   -46.0503 -22.4331 -22.3038 -22.2929  -6.8921  -6.1595  -6.0148  -5.0867
    -5.0733  -5.0621  -4.9563  -4.9167   3.6243   6.7209   6.9729   7.2695
     8.0550   8.3084   8.8487   9.2539   9.3986   9.8089  12.8361  13.6468
    13.6942  15.0594

          k = 0.2500 0.0500 0.1500 (  5077 PWs)   bands (ev):

   -46.0503 -22.4035 -22.3217 -22.3039  -6.9467  -6.1281  -6.0110  -5.0927
    -5.0655  -5.0538  -4.9726  -4.9072   3.6511   6.8085   7.0602   7.2881
     8.1433   8.2456   8.9027   9.1896   9.3963   9.6401  13.0930  13.3970
    13.4858  15.2939

          k =-0.0500 0.3500 0.1500 (  5080 PWs)   bands (ev):

   -46.0499 -22.4506 -22.3031 -22.2922  -6.7212  -6.1358  -5.9596  -5.1121
    -5.0729  -5.0680  -4.9868  -4.9137   3.3603   6.4064   6.9734   7.2603
     7.8608   8.1152   8.9392   9.2434   9.4630  10.1101  12.8280  13.9966
    14.0452  14.5281

          k = 0.3500 0.0500 0.1500 (  5080 PWs)   bands (ev):

   -46.0499 -22.4029 -22.3387 -22.3032  -6.8238  -6.0609  -5.9653  -5.1077
    -5.0710  -5.0533  -5.0114  -4.9042   3.4035   6.5445   7.0855   7.3902
     7.8956   8.2358   8.6141   9.2364   9.4209   9.9498  13.0713  13.7739
    13.8581  14.4749

          k =-0.0500 0.4500 0.1500 (  5079 PWs)   bands (ev):

   -46.0497 -22.4613 -22.3027 -22.2918  -6.6070  -6.1259  -5.9222  -5.1346
    -5.0743  -5.0715  -4.9971  -4.9165   3.2157   6.1226   6.9724   7.3476
     7.7387   7.9868   9.0393   9.2214   9.5034  10.3439  12.8140  13.9924
    14.2353  14.2861

          k = 0.4500 0.0500 0.1500 (  5079 PWs)   bands (ev):

   -46.0497 -22.4024 -22.3492 -22.3028  -6.7487  -6.0024  -5.9470  -5.1229
    -5.0745  -5.0530  -5.0301  -4.9052   3.2693   6.2760   7.1891   7.4750
     7.8416   8.0617   8.5105   9.2247   9.4573  10.2221  13.0241  13.9757
    14.0214  14.1105

          k = 0.2500 0.0500 0.2500 (  5076 PWs)   bands (ev):

   -46.0499 -22.4029 -22.3212 -22.3207  -6.8477  -6.0823  -5.9554  -5.0920
    -5.0677  -5.0595  -4.9461  -4.9347   3.4423   6.7633   6.9993   7.2813
     7.8210   7.9613   8.9542   9.0296   9.6019   9.6944  13.3196  13.4557
    13.7449  15.1069

          k =-0.0500 0.3500 0.2500 (  5080 PWs)   bands (ev):

   -46.0496 -22.4497 -22.3201 -22.2916  -6.6290  -6.0958  -5.9324  -5.1062
    -5.0834  -5.0660  -4.9523  -4.8981   3.2064   6.3467   6.9676   7.1672
     7.7736   8.0287   8.4823   9.1180   9.5029  10.0208  13.2643  14.0265
    14.1226  14.8124

          k = 0.3500 0.0500 0.2500 (  5080 PWs)   bands (ev):

   -46.0496 -22.4022 -22.3379 -22.3202  -6.7601  -6.0117  -5.9027  -5.0970
    -5.0698  -5.0609  -4.9583  -4.9273   3.2500   6.5496   6.8966   7.2662
     7.6618   7.9491   8.6264   9.1201   9.6151   9.8870  13.3422  13.7814
    14.0199  14.7777

          k =-0.0500 0.4500 0.2500 (  5084 PWs)   bands (ev):

   -46.0493 -22.4604 -22.3196 -22.2911  -6.5432  -6.0702  -5.9018  -5.1195
    -5.0828  -5.0722  -4.9511  -4.8907   3.0869   6.0787   6.9420   7.1562
     7.7159   7.9731   8.5017   9.1616   9.4762  10.0706  13.2524  14.2452
    14.2757  14.7016

          k = 0.4500 0.0500 0.2500 (  5084 PWs)   bands (ev):

   -46.0494 -22.4018 -22.3483 -22.3198  -6.7133  -5.9444  -5.8801  -5.1060
    -5.0722  -5.0641  -4.9506  -4.9322   3.1398   6.2824   6.9828   7.1310
     7.7059   8.0721   8.3089   9.2047   9.5468  10.0179  13.3187  14.0341
    14.2086  14.5701

          k = 0.3500 0.0500 0.3500 (  5079 PWs)   bands (ev):

   -46.0492 -22.4015 -22.3373 -22.3370  -6.7175  -5.9271  -5.8385  -5.0912
    -5.0748  -5.0593  -4.9752  -4.8880   3.0999   6.4794   6.6390   7.2121
     7.3797   7.9864   8.6446   8.8656   9.5743  10.0164  13.6717  13.8219
    14.2054  15.0319

          k =-0.0500 0.4500 0.3500 (  5079 PWs)   bands (ev):

   -46.0490 -22.4596 -22.3365 -22.2905  -6.5129  -6.0095  -5.8302  -5.1094
    -5.0894  -5.0699  -4.9845  -4.8015   2.9616   6.0316   6.6626   7.1731
     7.6730   7.9195   8.3267   8.8521   9.3322  10.0656  13.6521  14.2555
    14.4386  15.2463

          k = 0.4500 0.0500 0.3500 (  5079 PWs)   bands (ev):

   -46.0490 -22.4011 -22.3475 -22.3366  -6.7012  -5.8487  -5.8060  -5.0939
    -5.0731  -5.0666  -4.9866  -4.8587   3.0098   6.2424   6.6526   7.0830
     7.3491   8.1567   8.4096   8.8775   9.3967  10.1651  13.7270  14.0303
    14.3390  15.1173

          k = 0.4500 0.0500 0.4500 (  5100 PWs)   bands (ev):

   -46.0488 -22.4007 -22.3470 -22.3470  -6.7026  -5.7713  -5.7579  -5.0927
    -5.0710  -5.0664  -5.0153  -4.8129   2.9297   6.1213   6.5368   7.1110
     7.1299   8.3073   8.4733   8.6248   9.1607  10.3375  14.0083  14.0370
    14.4218  15.4019

          k =-0.1500 0.2500 0.1500 (  5084 PWs)   bands (ev):

   -46.0500 -22.4326 -22.3035 -22.3033  -6.8199  -6.1378  -6.0081  -5.0952
    -5.0816  -5.0490  -4.9316  -4.9174   3.5445   6.7172   6.7319   7.3202
     7.9733   8.1365   8.7423   9.3410   9.4982   9.6984  13.0317  13.6399
    13.6976  15.1634

          k =-0.1500 0.3500 0.1500 (  5082 PWs)   bands (ev):

   -46.0497 -22.4501 -22.3028 -22.3026  -6.6540  -6.1159  -5.9734  -5.1148
    -5.0783  -5.0355  -4.9533  -4.9144   3.3227   6.4088   6.6556   7.2251
     7.8570   8.1067   8.6083   9.3548   9.5470   9.9663  12.9694  13.9803
    14.0114  14.6859

          k =-0.1500 0.4500 0.1500 (  5084 PWs)   bands (ev):

   -46.0495 -22.4608 -22.3024 -22.3022  -6.5451  -6.1056  -5.9511  -5.1252
    -5.0761  -5.0199  -4.9695  -4.9199   3.1960   6.1257   6.6017   7.2714
     7.8083   8.0670   8.5807   9.3510   9.5769  10.0971  12.9135  14.1981
    14.2050  14.4753

          k = 0.2500 0.1500 0.2500 (  5081 PWs)   bands (ev):

   -46.0497 -22.4137 -22.3207 -22.3203  -6.7557  -6.0859  -5.9644  -5.0943
    -5.0796  -5.0362  -4.9263  -4.9074   3.4260   6.6331   6.7477   7.1264
     7.6070   7.9373   9.0348   9.2452   9.5492   9.6187  13.3705  13.5627
    13.7208  14.9565

          k =-0.1500 0.3500 0.2500 (  5080 PWs)   bands (ev):

   -46.0493 -22.4493 -22.3197 -22.3021  -6.5570  -6.0938  -5.9644  -5.1059
    -5.0796  -5.0158  -4.9242  -4.8830   3.2493   6.3335   6.5619   6.9362
     7.5579   7.9717   8.6316   9.3653   9.5503   9.8157  13.2469  13.9499
    14.0645  14.9398

          k = 0.3500 0.1500 0.2500 (  5080 PWs)   bands (ev):

   -46.0494 -22.4130 -22.3374 -22.3198  -6.6685  -6.0373  -5.9234  -5.0958
    -5.0718  -5.0158  -4.9255  -4.9048   3.2858   6.4947   6.6470   6.8660
     7.4269   7.9308   8.9052   9.2465   9.5052   9.8006  13.3472  13.7797
    13.9905  14.9122

          k =-0.1500 0.4500 0.2500 (  5077 PWs)   bands (ev):

   -46.0491 -22.4600 -22.3192 -22.3016  -6.4683  -6.0754  -5.9542  -5.1089
    -5.0752  -4.9959  -4.9324  -4.8755   3.1521   6.0860   6.4444   6.9279
     7.5465   8.0443   8.4627   9.4150   9.5181   9.8229  13.2260  14.1693
    14.2495  15.0200

          k = 0.4500 0.1500 0.2500 (  5077 PWs)   bands (ev):

   -46.0491 -22.4126 -22.3478 -22.3193  -6.6230  -6.0003  -5.8940  -5.0954
    -5.0648  -4.9975  -4.9261  -4.9108   3.1998   6.2775   6.5732   6.8227
     7.3938   7.9873   8.7321   9.3035   9.4127   9.8777  13.3311  13.9708
    14.1981  14.9405

          k = 0.3500 0.1500 0.3500 (  5081 PWs)   bands (ev):

   -46.0490 -22.4123 -22.3368 -22.3365  -6.6254  -5.9696  -5.8861  -5.0861
    -5.0647  -4.9929  -4.9209  -4.8721   3.1999   6.4459   6.4748   6.6414
     7.0521   7.9117   8.9365   9.1311   9.3102  10.0191  13.5701  13.8355
    14.1466  15.1952

          k =-0.1500 0.4500 0.3500 (  5079 PWs)   bands (ev):

   -46.0488 -22.4591 -22.3361 -22.3010  -6.4314  -6.0469  -5.9002  -5.0976
    -5.0574  -4.9828  -4.9506  -4.7855   3.0947   6.0126   6.5008   6.5916
     7.0717   8.0097   8.5651   9.1007   9.2779  10.0122  13.6083  14.1411
    14.3596  15.5024

          k = 0.4500 0.1500 0.3500 (  5079 PWs)   bands (ev):

   -46.0488 -22.4119 -22.3470 -22.3362  -6.6107  -5.9164  -5.8591  -5.0823
    -5.0526  -4.9781  -4.9317  -4.8443   3.1412   6.2326   6.4767   6.5373
     6.9384   7.9482   8.7840   9.0970   9.1886  10.1544  13.6798  13.9659
    14.2920  15.4331

          k = 0.4500 0.1500 0.4500 (  5073 PWs)   bands (ev):

   -46.0486 -22.4115 -22.3466 -22.3465  -6.6139  -5.8496  -5.8374  -5.0772
    -5.0315  -4.9648  -4.9521  -4.7985   3.0972   6.1104   6.4516   6.5210
     6.6428   7.9710   8.5828   9.0610   9.0698  10.3319  13.9401  13.9874
    14.3797  15.7399

          k =-0.2500 0.3500 0.2500 (  5072 PWs)   bands (ev):

   -46.0490 -22.4485 -22.3191 -22.3189  -6.4527  -6.0911  -5.9943  -5.0897
    -5.0688  -4.9679  -4.8812  -4.8465   3.3070   6.1640   6.3302   6.6472
     7.3989   7.4220   8.7706   9.5234   9.6384   9.7151  13.3169  13.9409
    14.0595  15.1906

          k =-0.2500 0.4500 0.2500 (  5073 PWs)   bands (ev):

   -46.0488 -22.4592 -22.3187 -22.3185  -6.3628  -6.0846  -6.0036  -5.0883
    -5.0595  -4.9257  -4.8878  -4.8321   3.2526   6.0270   6.1104   6.5783
     7.3799   7.4421   8.5423   9.4737   9.6669   9.7680  13.3767  14.0943
    14.2562  15.4700

          k = 0.3500 0.2500 0.3500 (  5057 PWs)   bands (ev):

   -46.0487 -22.4297 -22.3360 -22.3358  -6.4729  -6.0309  -5.9525  -5.0625
    -5.0566  -4.9155  -4.8365  -4.8352   3.3686   6.1031   6.1056   6.4601
     6.9211   7.3009   8.4906   9.5454   9.5915  10.0242  13.5428  13.9431
    14.1351  15.5048

          k =-0.2500 0.4500 0.3500 (  5063 PWs)   bands (ev):

   -46.0484 -22.4584 -22.3354 -22.3179  -6.3027  -6.0989  -5.9881  -5.0719
    -5.0343  -4.8982  -4.8475  -4.7539   3.3401   5.8452   6.1136   6.2605
     6.8157   7.3787   8.0813   9.4986   9.7515   9.9850  13.6753  14.0972
    14.3181  15.8670

          k = 0.4500 0.2500 0.3500 (  5063 PWs)   bands (ev):

   -46.0484 -22.4292 -22.3463 -22.3354  -6.4613  -6.0082  -5.9289  -5.0571
    -5.0416  -4.8689  -4.8358  -4.8086   3.3808   5.9675   6.0889   6.2255
     6.8033   7.2972   8.1370   9.5761   9.5957  10.1482  13.7454  13.9718
    14.2809  15.8428

          k = 0.4500 0.2500 0.4500 (  5070 PWs)   bands (ev):

   -46.0482 -22.4288 -22.3458 -22.3458  -6.4683  -5.9485  -5.9370  -5.0500
    -5.0257  -4.8313  -4.8201  -4.7700   3.4261   5.9334   5.9534   6.0999
     6.5779   7.2687   7.7166   9.6092   9.6138  10.3231  13.9677  14.0308
    14.3529  16.1647

          k =-0.3500 0.4500 0.3500 (  5056 PWs)   bands (ev):

   -46.0481 -22.4576 -22.3348 -22.3346  -6.2044  -6.1312  -6.0421  -5.0480
    -5.0201  -4.8254  -4.7504  -4.7084   3.6366   5.5665   5.8662   6.0539
     6.6812   6.8855   7.3257   9.8647  10.0043  10.0351  13.8885  14.1778
    14.3182  16.2588

          k = 0.4500 0.3500 0.4500 (  5051 PWs)   bands (ev):

   -46.0479 -22.4461 -22.3451 -22.3451  -6.3202  -6.0294  -6.0173  -5.0232
    -5.0226  -4.7448  -4.7064  -4.7031   3.8893   5.5361   5.5378   6.0167
     6.5777   6.6860   6.7736   9.9614   9.9706  10.3144  14.1316  14.1979
    14.3424  16.6134

     the Fermi energy is    10.4077 ev

!    total energy              =    -364.95378037 Ry
     Harris-Foulkes estimate   =    -364.95378037 Ry
     estimated scf accuracy    <          3.3E-09 Ry

     The total energy is the sum of the following terms:

     one-electron contribution =     -83.69744844 Ry
     hartree contribution      =      71.25909310 Ry
     xc contribution           =     -85.83609348 Ry
     ewald contribution        =    -266.68542877 Ry
     smearing contrib. (-TS)   =       0.00609723 Ry

     convergence has been achieved in  13 iterations

     Forces acting on atoms (cartesian axes, Ry/au):

     atom    1 type  1   force =     0.00000000   -0.01895444    0.00000000
     atom    2 type  2   force =     0.00000000    0.04163130    0.00000000
     atom    3 type  3   force =     0.00000000   -0.00376538    0.00000000
     atom    4 type  3   force =     0.00000000   -0.01514610    0.00000000
     atom    5 type  3   force =     0.00000000   -0.00376538    0.00000000

     Total force =     0.016055     Total SCF correction =     0.000015


     Computing stress (Cartesian axis) and pressure

          total   stress  (Ry/bohr**3)                   (kbar)     P=   20.27
   0.00003202   0.00000000   0.00000000          4.71      0.00      0.00
   0.00000000   0.00034934   0.00000000          0.00     51.39      0.00
   0.00000000   0.00000000   0.00003202          0.00      0.00      4.71


     BFGS Geometry Optimization

     number of scf cycles    =   1
     number of bfgs steps    =   0

     energy   new            =    -364.9537803658 Ry

     new trust radius        =       0.0151461027 bohr
     new conv_thr            =       0.0000000100 Ry


ATOMIC_POSITIONS (crystal)
Pb       0.000000000   0.000000000   0.000000000    0   0   0
Ti       0.500000000   0.451000000   0.500000000    0   0   0
O        0.500000000   0.499497279   0.000000000
O        0.500000000  -0.002022177   0.500000000
O        0.000000000   0.499497279   0.500000000



     Writing output data file PbTiO3.save/
     NEW-OLD atomic charge density approx. for the potential

     Check: negative core charge=   -0.000006

     total cpu time spent up to now is      515.8 secs

     Self-consistent Calculation

     iteration #  1     ecut=    80.00 Ry     beta= 0.70
     Davidson diagonalization with overlap
     ethr =  1.00E-06,  avg # of iterations =  3.3

     total cpu time spent up to now is      560.6 secs

     total energy              =    -364.95397937 Ry
     Harris-Foulkes estimate   =    -364.95401992 Ry
     estimated scf accuracy    <       0.00006016 Ry

     iteration #  2     ecut=    80.00 Ry     beta= 0.70
     Davidson diagonalization with overlap
     ethr =  1.37E-07,  avg # of iterations =  4.1

     total cpu time spent up to now is      600.3 secs

     total energy              =    -364.95396621 Ry
     Harris-Foulkes estimate   =    -364.95403318 Ry
     estimated scf accuracy    <       0.00017052 Ry

     iteration #  3     ecut=    80.00 Ry     beta= 0.70
     Davidson diagonalization with overlap
     ethr =  1.37E-07,  avg # of iterations =  3.3

     total cpu time spent up to now is      637.0 secs

     total energy              =    -364.95400041 Ry
     Harris-Foulkes estimate   =    -364.95400534 Ry
     estimated scf accuracy    <       0.00001472 Ry

     iteration #  4     ecut=    80.00 Ry     beta= 0.70
     Davidson diagonalization with overlap
     ethr =  3.35E-08,  avg # of iterations =  2.7

     total cpu time spent up to now is      668.8 secs

     total energy              =    -364.95400260 Ry
     Harris-Foulkes estimate   =    -364.95400286 Ry
     estimated scf accuracy    <       0.00000050 Ry

     iteration #  5     ecut=    80.00 Ry     beta= 0.70
     Davidson diagonalization with overlap
     ethr =  1.15E-09,  avg # of iterations =  3.9

     total cpu time spent up to now is      708.5 secs

     total energy              =    -364.95400276 Ry
     Harris-Foulkes estimate   =    -364.95400286 Ry
     estimated scf accuracy    <       0.00000024 Ry

     iteration #  6     ecut=    80.00 Ry     beta= 0.70
     Davidson diagonalization with overlap
     ethr =  5.35E-10,  avg # of iterations =  3.0

     total cpu time spent up to now is      742.3 secs

     total energy              =    -364.95400281 Ry
     Harris-Foulkes estimate   =    -364.95400283 Ry
     estimated scf accuracy    <       0.00000005 Ry

     iteration #  7     ecut=    80.00 Ry     beta= 0.70
     Davidson diagonalization with overlap
     ethr =  1.21E-10,  avg # of iterations =  2.2

     total cpu time spent up to now is      774.1 secs

     End of self-consistent calculation

          k = 0.0500 0.0500 0.0500 (  5047 PWs)   bands (ev):

   -46.0676 -22.4109 -22.3109 -22.3109  -7.2258  -6.2414  -6.1253  -5.0636
    -5.0456  -5.0453  -4.9083  -4.8922   4.4549   6.8141   6.8601   7.0024
     8.7473   8.7744   9.1613   9.2558   9.5132   9.5311  12.5088  12.9899
    12.9991  14.7157

          k = 0.0500 0.0500 0.1500 (  5074 PWs)   bands (ev):

   -46.0674 -22.4105 -22.3215 -22.3105  -7.1453  -6.2070  -6.0957  -5.0713
    -5.0534  -5.0450  -4.9385  -4.8913   4.1590   6.8694   6.9429   7.1783
     8.5424   8.7216   9.1009   9.1691   9.3771   9.5108  12.8255  12.9992
    13.0802  14.9154

          k = 0.0500 0.0500 0.2500 (  5093 PWs)   bands (ev):

   -46.0670 -22.4099 -22.3387 -22.3099  -7.0109  -6.1463  -6.0488  -5.0841
    -5.0663  -5.0441  -4.9948  -4.8867   3.7907   6.8797   7.0509   7.2018
     8.4324   8.5258   9.0138   9.0937   9.3002   9.5758  12.9997  13.2864
    13.3981  14.9162

          k = 0.0500 0.0500 0.3500 (  5090 PWs)   bands (ev):

   -46.0667 -22.4092 -22.3557 -22.3093  -6.8710  -6.0752  -6.0057  -5.1026
    -5.0813  -5.0494  -5.0433  -4.8839   3.5019   6.5379   7.2325   7.3643
     8.1679   8.2864   8.9478   9.0194   9.3985   9.9471  13.0001  13.7033
    13.7942  14.2546

          k = 0.0500 0.0500 0.4500 (  5073 PWs)   bands (ev):

   -46.0665 -22.4088 -22.3662 -22.3089  -6.7811  -6.0180  -5.9882  -5.1296
    -5.0923  -5.0700  -5.0428  -4.8834   3.3515   6.2621   7.4228   7.6157
     7.8871   7.9884   8.9225   9.0072   9.4513  10.3874  12.9846  13.5437
    13.9499  14.0666

          k = 0.0500 0.1500 0.1500 (  5079 PWs)   bands (ev):

   -46.0671 -22.4214 -22.3211 -22.3101  -7.0517  -6.1859  -6.0680  -5.0715
    -5.0642  -5.0519  -4.9300  -4.9123   3.9371   6.8249   6.9282   7.3464
     8.3197   8.5464   8.9478   9.2236   9.3357   9.6018  12.8257  13.2459
    13.3080  15.0219

          k = 0.0500 0.1500 0.2500 (  5077 PWs)   bands (ev):

   -46.0668 -22.4207 -22.3382 -22.3095  -6.9218  -6.1330  -6.0283  -5.0878
    -5.0739  -5.0513  -4.9613  -4.9031   3.6425   6.7836   7.0480   7.2830
     8.1772   8.3858   8.8272   9.0815   9.2716   9.7577  13.2267  13.3037
    13.5690  15.0601

          k = 0.0500 0.1500 0.3500 (  5080 PWs)   bands (ev):

   -46.0665 -22.4200 -22.3552 -22.3089  -6.7887  -6.0785  -5.9848  -5.1068
    -5.0834  -5.0509  -4.9883  -4.8997   3.3955   6.5209   7.1600   7.3343
     7.9383   8.2314   8.7721   9.0661   9.2528  10.0014  13.2388  13.6970
    13.9124  14.4204

          k = 0.0500 0.1500 0.4500 (  5079 PWs)   bands (ev):

   -46.0662 -22.4196 -22.3657 -22.3085  -6.7047  -6.0443  -5.9550  -5.1217
    -5.0919  -5.0506  -4.9970  -4.9022   3.2622   6.2651   7.2749   7.4975
     7.7633   7.9781   8.8009   9.1318   9.2233  10.1984  13.2192  13.9212
    13.9535  14.1559

          k = 0.0500 0.2500 0.2500 (  5076 PWs)   bands (ev):

   -46.0665 -22.4382 -22.3374 -22.3088  -6.7761  -6.1150  -5.9854  -5.0921
    -5.0782  -5.0590  -4.9373  -4.9161   3.4178   6.6476   7.0556   7.1890
     7.9610   8.1133   8.5951   9.0689   9.4485   9.9067  13.2669  13.6340
    13.8417  15.0057

          k = 0.0500 0.2500 0.3500 (  5080 PWs)   bands (ev):

   -46.0661 -22.4374 -22.3544 -22.3082  -6.6637  -6.0808  -5.9319  -5.1019
    -5.0824  -5.0604  -4.9475  -4.8945   3.2266   6.4779   6.9441   7.2609
     7.7441   8.0866   8.5019   8.8839   9.5583   9.9143  13.5976  13.6986
    14.0966  14.7166

          k = 0.0500 0.2500 0.4500 (  5084 PWs)   bands (ev):

   -46.0659 -22.4369 -22.3648 -22.3078  -6.5988  -6.0587  -5.8902  -5.1082
    -5.0903  -5.0615  -4.9407  -4.8907   3.1183   6.2597   6.9677   7.2662
     7.6432   8.0906   8.4444   8.8713   9.5806   9.8793  13.6058  13.9171
    14.2912  14.5282

          k = 0.0500 0.3500 0.3500 (  5079 PWs)   bands (ev):

   -46.0658 -22.4548 -22.3536 -22.3075  -6.5614  -6.0493  -5.8721  -5.1007
    -5.0851  -5.0632  -4.9702  -4.8360   3.0634   6.2879   6.6917   7.2473
     7.6588   7.9455   8.3836   8.8333   9.5482   9.9453  13.6523  13.9986
    14.2860  15.0351

          k = 0.0500 0.3500 0.4500 (  5079 PWs)   bands (ev):

   -46.0656 -22.4542 -22.3639 -22.3071  -6.5313  -6.0167  -5.8181  -5.1018
    -5.0889  -5.0663  -4.9782  -4.8015   2.9764   6.1798   6.5503   7.3213
     7.4724   8.1209   8.2934   8.7108   9.3585  10.0126  13.8865  13.9938
    14.4489  15.0873

          k = 0.0500 0.4500 0.4500 (  5100 PWs)   bands (ev):

   -46.0653 -22.4649 -22.3634 -22.3067  -6.5130  -5.9588  -5.7692  -5.1043
    -5.0883  -5.0667  -5.0024  -4.7500   2.8900   5.9892   6.4395   7.2955
     7.4586   8.0536   8.3483   8.6450   9.0437  10.1896  13.8687  14.2284
    14.5573  15.4539

          k = 0.1500 0.1500 0.1500 (  5095 PWs)   bands (ev):

   -46.0669 -22.4210 -22.3208 -22.3206  -6.9765  -6.1608  -6.0450  -5.0798
    -5.0697  -5.0516  -4.9272  -4.9131   3.7890   6.7944   6.8495   7.4549
     8.1711   8.3254   8.9104   9.2882   9.4383   9.4801  13.0495  13.2876
    13.3245  15.5071

          k = 0.1500 0.1500 0.2500 (  5084 PWs)   bands (ev):

   -46.0666 -22.4203 -22.3378 -22.3200  -6.8548  -6.1181  -6.0059  -5.0940
    -5.0711  -5.0480  -4.9437  -4.9032   3.5641   6.7400   6.8419   7.3065
     7.9584   8.1388   8.9470   9.2110   9.3800   9.6677  13.2499  13.4250
    13.5647  15.1382

          k = 0.1500 0.1500 0.3500 (  5082 PWs)   bands (ev):

   -46.0662 -22.4196 -22.3547 -22.3194  -6.7345  -6.0724  -5.9630  -5.1065
    -5.0639  -5.0421  -4.9671  -4.8997   3.3597   6.5191   6.8480   7.1870
     7.7609   8.1857   8.7162   9.2485   9.3902   9.8759  13.1951  13.7464
    13.9032  14.6310

          k = 0.1500 0.1500 0.4500 (  5084 PWs)   bands (ev):

   -46.0660 -22.4191 -22.3652 -22.3190  -6.6618  -6.0426  -5.9330  -5.1115
    -5.0582  -5.0354  -4.9831  -4.9034   3.2443   6.2708   6.8461   7.2304
     7.6687   8.2988   8.4688   9.3220   9.3738   9.9812  13.1305  13.9618
    14.1400  14.3864

          k = 0.1500 0.2500 0.2500 (  5081 PWs)   bands (ev):

   -46.0662 -22.4378 -22.3370 -22.3194  -6.7068  -6.1058  -5.9878  -5.0961
    -5.0806  -5.0347  -4.9185  -4.8984   3.4111   6.5879   6.7081   7.1315
     7.6782   7.9646   8.8665   9.2643   9.4936   9.7584  13.3017  13.6183
    13.7956  14.9458

          k = 0.1500 0.2500 0.3500 (  5080 PWs)   bands (ev):

   -46.0659 -22.4370 -22.3539 -22.3187  -6.5999  -6.0884  -5.9407  -5.0990
    -5.0698  -5.0249  -4.9211  -4.8789   3.2708   6.4496   6.6691   6.8990
     7.3800   8.0120   8.9150   9.0806   9.5610   9.7570  13.4349  13.7280
    14.0379  14.9014

          k = 0.1500 0.2500 0.4500 (  5077 PWs)   bands (ev):

   -46.0657 -22.4365 -22.3643 -22.3183  -6.5395  -6.0811  -5.8998  -5.0977
    -5.0600  -5.0224  -4.9145  -4.8773   3.1856   6.2585   6.6372   6.8254
     7.2891   8.1099   8.7324   9.1654   9.4984   9.7349  13.4480  13.9046
    14.2361  14.9288

          k = 0.1500 0.3500 0.3500 (  5081 PWs)   bands (ev):

   -46.0656 -22.4543 -22.3531 -22.3180  -6.4852  -6.0759  -5.9161  -5.0957
    -5.0630  -5.0038  -4.9284  -4.8205   3.1677   6.2511   6.5788   6.6640
     7.0930   7.9811   8.7702   9.1129   9.4016   9.8983  13.5650  13.9079
    14.2041  15.2069

          k = 0.1500 0.3500 0.4500 (  5079 PWs)   bands (ev):

   -46.0653 -22.4538 -22.3635 -22.3176  -6.4544  -6.0661  -5.8667  -5.0913
    -5.0440  -5.0082  -4.9305  -4.7862   3.1106   6.1641   6.4729   6.6337
     6.8893   8.0531   8.7225   9.0158   9.1905  10.0019  13.8016  13.9033
    14.3551  15.4254

          k = 0.1500 0.4500 0.4500 (  5073 PWs)   bands (ev):

   -46.0651 -22.4644 -22.3630 -22.3172  -6.4313  -6.0201  -5.8470  -5.0887
    -5.0249  -4.9913  -4.9549  -4.7334   3.0572   5.9694   6.3939   6.6216
     6.7563   8.0543   8.4702   8.9216   9.1365  10.1707  13.8557  14.1051
    14.4539  15.7631

          k = 0.2500 0.2500 0.2500 (  5070 PWs)   bands (ev):

   -46.0659 -22.4370 -22.3365 -22.3361  -6.6032  -6.0886  -5.9830  -5.0853
    -5.0810  -5.0039  -4.8955  -4.8721   3.3817   6.4038   6.4906   6.9771
     7.4574   7.5409   9.0480   9.5015   9.5136   9.6519  13.3030  13.7636
    13.7732  14.9748

          k = 0.2500 0.2500 0.3500 (  5072 PWs)   bands (ev):

   -46.0656 -22.4363 -22.3532 -22.3356  -6.5163  -6.0764  -5.9531  -5.0796
    -5.0646  -4.9677  -4.8784  -4.8538   3.3306   6.2710   6.3475   6.6577
     7.1843   7.5061   8.9159   9.4362   9.5467   9.7946  13.3794  13.8176
    14.0242  15.1746

          k = 0.2500 0.2500 0.4500 (  5073 PWs)   bands (ev):

   -46.0653 -22.4358 -22.3636 -22.3352  -6.4736  -6.0749  -5.9158  -5.0753
    -5.0526  -4.9329  -4.8736  -4.8501   3.2902   6.1773   6.2596   6.4412
     7.1172   7.5478   8.6897   9.4622   9.5031   9.8530  13.4924  13.9000
    14.2196  15.4175

          k = 0.2500 0.3500 0.3500 (  5057 PWs)   bands (ev):

   -46.0652 -22.4536 -22.3524 -22.3349  -6.3754  -6.1003  -5.9759  -5.0723
    -5.0458  -4.9273  -4.8529  -4.7911   3.3483   6.0253   6.1798   6.4362
     6.8718   7.3895   8.4588   9.5138   9.7095   9.8921  13.5320  13.9578
    14.1555  15.5077

          k = 0.2500 0.3500 0.4500 (  5063 PWs)   bands (ev):

   -46.0650 -22.4531 -22.3628 -22.3345  -6.3455  -6.1157  -5.9336  -5.0654
    -5.0292  -4.9013  -4.8415  -4.7571   3.3593   6.0165   6.0571   6.2420
     6.6841   7.4170   8.1024   9.5323   9.6988  10.0052  13.7779  13.9424
    14.3007  15.8453

          k = 0.2500 0.4500 0.4500 (  5070 PWs)   bands (ev):

   -46.0648 -22.4637 -22.3623 -22.3340  -6.2995  -6.1013  -5.9450  -5.0612
    -5.0111  -4.8804  -4.8239  -4.7020   3.3868   5.8322   6.0680   6.1174
     6.4972   7.3904   7.6431   9.5280   9.7441  10.1529  13.9170  14.0806
    14.3908  16.1806

          k = 0.3500 0.3500 0.3500 (  5055 PWs)   bands (ev):

   -46.0649 -22.4528 -22.3518 -22.3516  -6.3104  -6.0879  -6.0129  -5.0478
    -5.0341  -4.8540  -4.7836  -4.7545   3.5416   5.7650   5.8689   6.2956
     6.8225   6.8834   7.8232   9.7884   9.8861  10.0275  13.6995  14.1303
    14.1331  15.8766

          k = 0.3500 0.3500 0.4500 (  5056 PWs)   bands (ev):

   -46.0647 -22.4524 -22.3621 -22.3513  -6.3015  -6.0885  -5.9910  -5.0376
    -5.0230  -4.8028  -4.7556  -4.7230   3.6631   5.6656   5.7229   6.1315
     6.6502   6.8661   7.3366   9.8443   9.9603  10.1434  13.9322  14.0859
    14.2919  16.2546

          k = 0.3500 0.4500 0.4500 (  5051 PWs)   bands (ev):

   -46.0644 -22.4630 -22.3616 -22.3508  -6.1966  -6.1405  -6.0240  -5.0340
    -5.0070  -4.7747  -4.7074  -4.6639   3.8569   5.5019   5.6557   5.9721
     6.4645   6.7098   6.8383   9.9394  10.1240  10.1490  14.0914  14.2014
    14.3625  16.6159

          k = 0.4500 0.4500 0.4500 (  5034 PWs)   bands (ev):

   -46.0642 -22.4625 -22.3612 -22.3611  -6.2194  -6.0778  -6.0634  -5.0187
    -5.0034  -4.7121  -4.6419  -4.6358   4.3525   5.3237   5.4049   5.8828
     5.9514   6.4493   6.5696  10.1231  10.1361  10.3051  14.2665  14.3391
    14.3421  16.9706

          k =-0.0500 0.1500 0.0500 (  5074 PWs)   bands (ev):

   -46.0674 -22.4218 -22.3105 -22.3105  -7.1304  -6.2178  -6.0913  -5.0631
    -5.0547  -5.0521  -4.9279  -4.9041   4.1515   6.8606   6.8618   7.1876
     8.5638   8.5887   9.1088   9.1486   9.5395   9.5598  12.5105  13.2356
    13.2536  14.7180

          k =-0.0500 0.2500 0.0500 (  5093 PWs)   bands (ev):

   -46.0670 -22.4394 -22.3099 -22.3098  -6.9672  -6.1838  -6.0311  -5.0716
    -5.0627  -5.0614  -4.9884  -4.8990   3.7688   6.8283   6.9424   7.1153
     8.3181   8.3389   9.0984   9.2210   9.6097   9.6754  12.5132  13.6162
    13.6425  14.7224

          k =-0.0500 0.3500 0.0500 (  5090 PWs)   bands (ev):

   -46.0667 -22.4569 -22.3092 -22.3092  -6.7887  -6.1588  -5.9621  -5.1015
    -5.0706  -5.0612  -5.0448  -4.8964   3.4644   6.4522   7.0293   7.1626
     8.1019   8.1030   9.0370   9.4550   9.6635  10.0540  12.5149  13.9827
    14.0145  14.3454

          k =-0.0500 0.4500 0.0500 (  5073 PWs)   bands (ev):

   -46.0665 -22.4677 -22.3088 -22.3088  -6.6659  -6.1524  -5.9130  -5.1393
    -5.0752  -5.0668  -5.0607  -4.8960   3.3039   6.1461   7.0885   7.2530
     7.9433   7.9748   8.9972   9.5460   9.6988  10.5096  12.5130  13.6042
    14.2033  14.2430

          k = 0.1500 0.0500 0.1500 (  5079 PWs)   bands (ev):

   -46.0671 -22.4101 -22.3213 -22.3210  -7.0692  -6.1788  -6.0646  -5.0790
    -5.0538  -5.0514  -4.9393  -4.9052   3.9469   6.8206   7.0087   7.3267
     8.3551   8.4999   8.9801   9.2032   9.4008   9.5288  13.0232  13.0913
    13.1171  15.2566

          k =-0.0500 0.2500 0.1500 (  5077 PWs)   bands (ev):

   -46.0668 -22.4390 -22.3204 -22.3095  -6.8935  -6.1552  -6.0189  -5.0841
    -5.0700  -5.0597  -4.9545  -4.9139   3.6285   6.7242   6.9768   7.2652
     8.0665   8.3218   8.8506   9.2568   9.3953   9.8072  12.8239  13.6201
    13.6679  15.0430

          k = 0.2500 0.0500 0.1500 (  5077 PWs)   bands (ev):

   -46.0668 -22.4095 -22.3382 -22.3205  -6.9451  -6.1266  -6.0148  -5.0898
    -5.0630  -5.0514  -4.9698  -4.9051   3.6533   6.8067   7.0582   7.2875
     8.1521   8.2575   8.9092   9.1925   9.3965   9.6476  13.0658  13.3776
    13.4715  15.2710

          k =-0.0500 0.3500 0.1500 (  5080 PWs)   bands (ev):

   -46.0665 -22.4564 -22.3197 -22.3088  -6.7243  -6.1299  -5.9642  -5.1092
    -5.0697  -5.0655  -4.9849  -4.9109   3.3660   6.4085   6.9799   7.2604
     7.8680   8.1236   8.9369   9.2461   9.4589  10.1080  12.8159  13.9737
    14.0195  14.5269

          k = 0.3500 0.0500 0.1500 (  5080 PWs)   bands (ev):

   -46.0665 -22.4088 -22.3552 -22.3198  -6.8209  -6.0607  -5.9691  -5.1051
    -5.0685  -5.0509  -5.0081  -4.9021   3.4058   6.5398   7.0886   7.3887
     7.8960   8.2455   8.6225   9.2408   9.4233   9.9551  13.0461  13.7580
    13.8437  14.4755

          k =-0.0500 0.4500 0.1500 (  5079 PWs)   bands (ev):

   -46.0662 -22.4672 -22.3193 -22.3084  -6.6118  -6.1183  -5.9271  -5.1313
    -5.0720  -5.0682  -4.9952  -4.9136   3.2224   6.1226   6.9821   7.3515
     7.7441   7.9889   9.0359   9.2241   9.4990  10.3416  12.8021  13.9892
    14.2127  14.2637

          k = 0.4500 0.0500 0.1500 (  5079 PWs)   bands (ev):

   -46.0662 -22.4084 -22.3657 -22.3194  -6.7449  -6.0035  -5.9506  -5.1204
    -5.0721  -5.0506  -5.0264  -4.9032   3.2717   6.2704   7.1944   7.4758
     7.8365   8.0581   8.5331   9.2286   9.4604  10.2250  13.0036  13.9715
    14.0102  14.0930

          k = 0.2500 0.0500 0.2500 (  5076 PWs)   bands (ev):

   -46.0665 -22.4088 -22.3377 -22.3373  -6.8447  -6.0822  -5.9594  -5.0894
    -5.0653  -5.0571  -4.9428  -4.9325   3.4440   6.7618   6.9978   7.2806
     7.8386   7.9647   8.9443   9.0391   9.6006   9.7034  13.2998  13.4352
    13.7332  15.1063

          k =-0.0500 0.3500 0.2500 (  5080 PWs)   bands (ev):

   -46.0661 -22.4556 -22.3367 -22.3082  -6.6320  -6.0899  -5.9364  -5.1033
    -5.0801  -5.0636  -4.9497  -4.8965   3.2111   6.3524   6.9624   7.1718
     7.7767   8.0349   8.4839   9.1148   9.5113  10.0170  13.2533  14.0001
    14.1032  14.8095

          k = 0.3500 0.0500 0.2500 (  5080 PWs)   bands (ev):

   -46.0661 -22.4081 -22.3544 -22.3368  -6.7555  -6.0133  -5.9067  -5.0946
    -5.0674  -5.0585  -4.9553  -4.9243   3.2515   6.5451   6.8975   7.2704
     7.6724   7.9553   8.6217   9.1204   9.6185   9.8880  13.3254  13.7642
    14.0087  14.7774

          k =-0.0500 0.4500 0.2500 (  5084 PWs)   bands (ev):

   -46.0659 -22.4663 -22.3362 -22.3077  -6.5477  -6.0624  -5.9063  -5.1163
    -5.0795  -5.0699  -4.9483  -4.8894   3.0924   6.0826   6.9411   7.1593
     7.7206   7.9770   8.4995   9.1578   9.4849  10.0669  13.2415  14.2227
    14.2551  14.6974

          k = 0.4500 0.0500 0.2500 (  5084 PWs)   bands (ev):

   -46.0659 -22.4077 -22.3649 -22.3363  -6.7077  -5.9472  -5.8839  -5.1036
    -5.0698  -5.0617  -4.9476  -4.9289   3.1412   6.2772   6.9836   7.1381
     7.7163   8.0734   8.3086   9.2022   9.5508  10.0157  13.3048  14.0187
    14.1964  14.5692

          k = 0.3500 0.0500 0.3500 (  5079 PWs)   bands (ev):

   -46.0658 -22.4075 -22.3538 -22.3535  -6.7115  -5.9302  -5.8427  -5.0890
    -5.0724  -5.0570  -4.9727  -4.8839   3.1007   6.4768   6.6333   7.2234
     7.3982   7.9841   8.6345   8.8666   9.5770  10.0135  13.6596  13.8052
    14.1955  15.0314

          k =-0.0500 0.4500 0.3500 (  5079 PWs)   bands (ev):

   -46.0656 -22.4654 -22.3530 -22.3071  -6.5171  -6.0013  -5.8345  -5.1063
    -5.0860  -5.0676  -4.9819  -4.8004   2.9659   6.0374   6.6555   7.1788
     7.6684   7.9265   8.3271   8.8497   9.3413  10.0664  13.6425  14.2296
    14.4206  15.2414

          k = 0.4500 0.0500 0.3500 (  5079 PWs)   bands (ev):

   -46.0656 -22.4070 -22.3640 -22.3532  -6.6946  -5.8526  -5.8102  -5.0917
    -5.0707  -5.0642  -4.9839  -4.8544   3.0102   6.2384   6.6457   7.0986
     7.3679   8.1532   8.4025   8.8734   9.3970  10.1616  13.7147  14.0157
    14.3299  15.1178

          k = 0.4500 0.0500 0.4500 (  5100 PWs)   bands (ev):

   -46.0653 -22.4066 -22.3635 -22.3635  -6.6956  -5.7757  -5.7623  -5.0905
    -5.0687  -5.0641  -5.0122  -4.8084   2.9297   6.1181   6.5273   7.1304
     7.1501   8.3021   8.4637   8.6217   9.1579  10.3336  13.9954  14.0227
    14.4153  15.3931

          k =-0.1500 0.2500 0.1500 (  5084 PWs)   bands (ev):

   -46.0666 -22.4385 -22.3201 -22.3199  -6.8209  -6.1338  -6.0122  -5.0924
    -5.0785  -5.0465  -4.9298  -4.9147   3.5484   6.7192   6.7378   7.3149
     7.9781   8.1444   8.7551   9.3435   9.4941   9.6964  13.0203  13.6164
    13.6719  15.1639

          k =-0.1500 0.3500 0.1500 (  5082 PWs)   bands (ev):

   -46.0662 -22.4559 -22.3194 -22.3192  -6.6568  -6.1100  -5.9778  -5.1118
    -5.0751  -5.0333  -4.9517  -4.9116   3.3279   6.4108   6.6645   7.2192
     7.8565   8.1190   8.6120   9.3579   9.5427   9.9637  12.9584  13.9583
    13.9884  14.6842

          k =-0.1500 0.4500 0.1500 (  5084 PWs)   bands (ev):

   -46.0660 -22.4666 -22.3190 -22.3188  -6.5497  -6.0979  -5.9556  -5.1220
    -5.0728  -5.0178  -4.9679  -4.9169   3.2022   6.1259   6.6122   7.2668
     7.8053   8.0825   8.5788   9.3543   9.5724  10.0947  12.9025  14.1767
    14.1841  14.4716

          k = 0.2500 0.1500 0.2500 (  5081 PWs)   bands (ev):

   -46.0662 -22.4196 -22.3372 -22.3368  -6.7532  -6.0852  -5.9683  -5.0917
    -5.0769  -5.0336  -4.9232  -4.9056   3.4282   6.6355   6.7477   7.1257
     7.6134   7.9370   9.0492   9.2423   9.5523   9.6178  13.3546  13.5424
    13.7062  14.9552

          k =-0.1500 0.3500 0.2500 (  5080 PWs)   bands (ev):

   -46.0659 -22.4551 -22.3363 -22.3187  -6.5594  -6.0882  -5.9682  -5.1028
    -5.0765  -5.0134  -4.9215  -4.8814   3.2538   6.3399   6.5669   6.9298
     7.5549   7.9709   8.6479   9.3614   9.5555   9.8125  13.2371  13.9275
    14.0450  14.9362

          k = 0.3500 0.1500 0.2500 (  5080 PWs)   bands (ev):

   -46.0659 -22.4189 -22.3540 -22.3363  -6.6643  -6.0382  -5.9272  -5.0933
    -5.0692  -5.0134  -4.9225  -4.9025   3.2876   6.4926   6.6507   6.8668
     7.4307   7.9318   8.9086   9.2504   9.5094   9.7981  13.3320  13.7648
    13.9756  14.9096

          k =-0.1500 0.4500 0.2500 (  5077 PWs)   bands (ev):

   -46.0657 -22.4658 -22.3358 -22.3182  -6.4726  -6.0677  -5.9581  -5.1057
    -5.0721  -4.9940  -4.9294  -4.8743   3.1574   6.0898   6.4510   6.9225
     7.5415   8.0427   8.4783   9.4128   9.5204   9.8216  13.2156  14.1472
    14.2301  15.0176

          k = 0.4500 0.1500 0.2500 (  5077 PWs)   bands (ev):

   -46.0657 -22.4185 -22.3644 -22.3359  -6.6178  -6.0023  -5.8976  -5.0930
    -5.0622  -4.9954  -4.9227  -4.9084   3.2014   6.2726   6.5780   6.8249
     7.3963   7.9907   8.7316   9.3077   9.4175   9.8742  13.3158  13.9596
    14.1822  14.9389

          k = 0.3500 0.1500 0.3500 (  5081 PWs)   bands (ev):

   -46.0656 -22.4182 -22.3533 -22.3531  -6.6196  -5.9722  -5.8899  -5.0838
    -5.0619  -4.9909  -4.9191  -4.8680   3.2009   6.4437   6.4766   6.6466
     7.0547   7.9115   8.9419   9.1300   9.3114  10.0162  13.5599  13.8189
    14.1339  15.1924

          k =-0.1500 0.4500 0.3500 (  5079 PWs)   bands (ev):

   -46.0653 -22.4650 -22.3526 -22.3176  -6.4353  -6.0391  -5.9039  -5.0945
    -5.0542  -4.9806  -4.9478  -4.7845   3.0989   6.0196   6.5036   6.5853
     7.0668   8.0060   8.5804   9.1030   9.2740  10.0166  13.5983  14.1190
    14.3422  15.4991

          k = 0.4500 0.1500 0.3500 (  5079 PWs)   bands (ev):

   -46.0653 -22.4178 -22.3636 -22.3527  -6.6041  -5.9197  -5.8628  -5.0801
    -5.0498  -4.9764  -4.9299  -4.8400   3.1418   6.2288   6.4819   6.5410
     6.9414   7.9485   8.7852   9.0970   9.1894  10.1510  13.6672  13.9533
    14.2797  15.4323

          k = 0.4500 0.1500 0.4500 (  5073 PWs)   bands (ev):

   -46.0651 -22.4174 -22.3631 -22.3631  -6.6069  -5.8532  -5.8411  -5.0750
    -5.0285  -4.9633  -4.9505  -4.7939   3.0972   6.1071   6.4528   6.5321
     6.6438   7.9708   8.5811   9.0607   9.0698  10.3280  13.9276  13.9734
    14.3701  15.7400

          k =-0.2500 0.3500 0.2500 (  5072 PWs)   bands (ev):

   -46.0656 -22.4544 -22.3357 -22.3355  -6.4539  -6.0863  -5.9979  -5.0866
    -5.0660  -4.9652  -4.8786  -4.8454   3.3110   6.1719   6.3336   6.6422
     7.3936   7.4176   8.7874   9.5224   9.6351   9.7198  13.3078  13.9214
    14.0400  15.1856

          k =-0.2500 0.4500 0.2500 (  5073 PWs)   bands (ev):

   -46.0653 -22.4650 -22.3352 -22.3350  -6.3667  -6.0771  -6.0072  -5.0851
    -5.0566  -4.9227  -4.8856  -4.8311   3.2574   6.0354   6.1120   6.5730
     7.3732   7.4378   8.5577   9.4745   9.6638   9.7730  13.3663  14.0750
    14.2370  15.4670

          k = 0.3500 0.2500 0.3500 (  5057 PWs)   bands (ev):

   -46.0652 -22.4356 -22.3525 -22.3523  -6.4676  -6.0326  -5.9558  -5.0602
    -5.0535  -4.9131  -4.8340  -4.8331   3.3702   6.1077   6.1101   6.4590
     6.9147   7.2987   8.4952   9.5511   9.5949  10.0213  13.5328  13.9264
    14.1202  15.5007

          k =-0.2500 0.4500 0.3500 (  5063 PWs)   bands (ev):

   -46.0650 -22.4642 -22.3519 -22.3344  -6.3061  -6.0916  -5.9913  -5.0687
    -5.0316  -4.8941  -4.8461  -4.7531   3.3442   5.8543   6.1136   6.2551
     6.8099   7.3728   8.0899   9.5062   9.7472   9.9918  13.6647  14.0785
    14.3007  15.8632

          k = 0.4500 0.2500 0.3500 (  5063 PWs)   bands (ev):

   -46.0650 -22.4351 -22.3628 -22.3520  -6.4549  -6.0107  -5.9321  -5.0548
    -5.0386  -4.8668  -4.8345  -4.8050   3.3818   5.9719   6.0954   6.2225
     6.7973   7.2955   8.1388   9.5806   9.6008  10.1449  13.7321  13.9592
    14.2664  15.8407

          k = 0.4500 0.2500 0.4500 (  5070 PWs)   bands (ev):

   -46.0648 -22.4347 -22.3624 -22.3623  -6.4613  -5.9515  -5.9401  -5.0478
    -5.0225  -4.8302  -4.8192  -4.7654   3.4262   5.9397   5.9618   6.0977
     6.5683   7.2680   7.7157   9.6139   9.6182  10.3191  13.9546  14.0164
    14.3410  16.1641

          k =-0.3500 0.4500 0.3500 (  5056 PWs)   bands (ev):

   -46.0647 -22.4634 -22.3513 -22.3512  -6.2045  -6.1270  -6.0450  -5.0448
    -5.0178  -4.8206  -4.7494  -4.7079   3.6403   5.5737   5.8627   6.0529
     6.6782   6.8765   7.3315   9.8736  10.0092  10.0337  13.8772  14.1611
    14.3014  16.2552

          k = 0.4500 0.3500 0.4500 (  5051 PWs)   bands (ev):

   -46.0644 -22.4519 -22.3616 -22.3616  -6.3133  -6.0320  -6.0201  -5.0203
    -5.0200  -4.7402  -4.7053  -4.7026   3.8897   5.5411   5.5451   6.0127
     6.5677   6.6855   6.7736   9.9685   9.9775  10.3104  14.1179  14.1830
    14.3292  16.6125

     the Fermi energy is    10.4079 ev

!    total energy              =    -364.95400282 Ry
     Harris-Foulkes estimate   =    -364.95400282 Ry
     estimated scf accuracy    <          6.5E-10 Ry

     The total energy is the sum of the following terms:

     one-electron contribution =     -83.58766993 Ry
     hartree contribution      =      71.19982890 Ry
     xc contribution           =     -85.83183148 Ry
     ewald contribution        =    -266.74043408 Ry
     smearing contrib. (-TS)   =       0.00610377 Ry

     convergence has been achieved in   7 iterations

     Forces acting on atoms (cartesian axes, Ry/au):

     atom    1 type  1   force =     0.00000000   -0.01890876    0.00000000
     atom    2 type  2   force =     0.00000000    0.03824829    0.00000000
     atom    3 type  3   force =     0.00000000   -0.00465080    0.00000000
     atom    4 type  3   force =     0.00000000   -0.01003793    0.00000000
     atom    5 type  3   force =     0.00000000   -0.00465080    0.00000000

     Total force =     0.012001     Total SCF correction =     0.000062


     Computing stress (Cartesian axis) and pressure

          total   stress  (Ry/bohr**3)                   (kbar)     P=   18.00
   0.00002709   0.00000000   0.00000000          3.99      0.00      0.00
   0.00000000   0.00031286   0.00000000          0.00     46.02      0.00
   0.00000000   0.00000000   0.00002709          0.00      0.00      3.99


     number of scf cycles    =   2
     number of bfgs steps    =   1

     energy   old            =    -364.9537803658 Ry
     energy   new            =    -364.9540028170 Ry

     CASE: energy  _new < energy  _old

     new trust radius        =       0.0166607130 bohr
     new conv_thr            =       0.0000000002 Ry


ATOMIC_POSITIONS (crystal)
Pb       0.000000000   0.000000000   0.000000000    0   0   0
Ti       0.500000000   0.451000000   0.500000000    0   0   0
O        0.500000000   0.498538311   0.000000000
O        0.500000000  -0.004246571   0.500000000
O        0.000000000   0.498538311   0.500000000



     Writing output data file PbTiO3.save/
     NEW-OLD atomic charge density approx. for the potential

     Check: negative core charge=   -0.000006

     total cpu time spent up to now is      796.3 secs

     Self-consistent Calculation

     iteration #  1     ecut=    80.00 Ry     beta= 0.70
     Davidson diagonalization with overlap
     ethr =  1.00E-06,  avg # of iterations =  3.4

     total cpu time spent up to now is      844.0 secs

     total energy              =    -364.95417449 Ry
     Harris-Foulkes estimate   =    -364.95422349 Ry
     estimated scf accuracy    <       0.00007482 Ry

     iteration #  2     ecut=    80.00 Ry     beta= 0.70
     Davidson diagonalization with overlap
     ethr =  1.70E-07,  avg # of iterations =  4.1

     total cpu time spent up to now is      884.1 secs

     total energy              =    -364.95415723 Ry
     Harris-Foulkes estimate   =    -364.95423921 Ry
     estimated scf accuracy    <       0.00020885 Ry

     iteration #  3     ecut=    80.00 Ry     beta= 0.70
     Davidson diagonalization with overlap
     ethr =  1.70E-07,  avg # of iterations =  3.3

     total cpu time spent up to now is      920.5 secs

     total energy              =    -364.95419953 Ry
     Harris-Foulkes estimate   =    -364.95420548 Ry
     estimated scf accuracy    <       0.00001829 Ry

     iteration #  4     ecut=    80.00 Ry     beta= 0.70
     Davidson diagonalization with overlap
     ethr =  4.16E-08,  avg # of iterations =  2.7

     total cpu time spent up to now is      952.2 secs

     total energy              =    -364.95420212 Ry
     Harris-Foulkes estimate   =    -364.95420247 Ry
     estimated scf accuracy    <       0.00000065 Ry

     iteration #  5     ecut=    80.00 Ry     beta= 0.70
     Davidson diagonalization with overlap
     ethr =  1.48E-09,  avg # of iterations =  3.9

     total cpu time spent up to now is      991.5 secs

     total energy              =    -364.95420233 Ry
     Harris-Foulkes estimate   =    -364.95420250 Ry
     estimated scf accuracy    <       0.00000042 Ry

     iteration #  6     ecut=    80.00 Ry     beta= 0.70
     Davidson diagonalization with overlap
     ethr =  9.53E-10,  avg # of iterations =  2.9

     total cpu time spent up to now is     1024.6 secs

     total energy              =    -364.95420242 Ry
     Harris-Foulkes estimate   =    -364.95420244 Ry
     estimated scf accuracy    <       0.00000006 Ry

     iteration #  7     ecut=    80.00 Ry     beta= 0.70
     Davidson diagonalization with overlap
     ethr =  1.36E-10,  avg # of iterations =  2.3

     total cpu time spent up to now is     1057.0 secs

     total energy              =    -364.95420243 Ry
     Harris-Foulkes estimate   =    -364.95420243 Ry
     estimated scf accuracy    <          6.3E-10 Ry

     iteration #  8     ecut=    80.00 Ry     beta= 0.70
     Davidson diagonalization with overlap
     ethr =  1.42E-12,  avg # of iterations =  4.0

     total cpu time spent up to now is     1104.8 secs

     End of self-consistent calculation

          k = 0.0500 0.0500 0.0500 (  5047 PWs)   bands (ev):

   -46.0851 -22.4175 -22.3285 -22.3285  -7.2261  -6.2382  -6.1302  -5.0601
    -5.0432  -5.0429  -4.9055  -4.8906   4.4575   6.8149   6.8576   6.9993
     8.7745   8.8029   9.1604   9.2703   9.5168   9.5274  12.4951  12.9501
    12.9582  14.6974

          k = 0.0500 0.0500 0.1500 (  5074 PWs)   bands (ev):

   -46.0849 -22.4171 -22.3391 -22.3281  -7.1451  -6.2042  -6.1006  -5.0677
    -5.0510  -5.0425  -4.9359  -4.8895   4.1617   6.8694   6.9377   7.1770
     8.5670   8.7425   9.1086   9.1722   9.3779   9.5146  12.8124  12.9588
    13.0496  14.8851

          k = 0.0500 0.0500 0.2500 (  5093 PWs)   bands (ev):

   -46.0845 -22.4164 -22.3562 -22.3275  -7.0099  -6.1442  -6.0536  -5.0807
    -5.0639  -5.0417  -4.9921  -4.8848   3.7935   6.8756   7.0494   7.1993
     8.4459   8.5345   9.0261   9.0996   9.3073   9.5805  12.9591  13.2740
    13.3757  14.8854

          k = 0.0500 0.0500 0.3500 (  5090 PWs)   bands (ev):

   -46.0842 -22.4158 -22.3732 -22.3269  -6.8689  -6.0743  -6.0101  -5.0997
    -5.0784  -5.0465  -5.0408  -4.8819   3.5050   6.5321   7.2316   7.3607
     8.1699   8.2864   8.9613   9.0357   9.4110   9.9513  12.9594  13.6918
    13.7748  14.2579

          k = 0.0500 0.0500 0.4500 (  5073 PWs)   bands (ev):

   -46.0840 -22.4153 -22.3837 -22.3265  -6.7782  -6.0185  -5.9920  -5.1270
    -5.0888  -5.0672  -5.0403  -4.8814   3.3550   6.2545   7.4223   7.6127
     7.8873   7.9829   8.9287   9.0353   9.4640  10.3923  12.9462  13.5451
    13.9390  14.0459

          k = 0.0500 0.1500 0.1500 (  5079 PWs)   bands (ev):

   -46.0847 -22.4280 -22.3387 -22.3277  -7.0522  -6.1826  -6.0730  -5.0680
    -5.0615  -5.0494  -4.9276  -4.9101   3.9405   6.8245   6.9295   7.3429
     8.3373   8.5647   8.9579   9.2271   9.3340   9.6002  12.8128  13.2096
    13.2785  15.0005

          k = 0.0500 0.1500 0.2500 (  5077 PWs)   bands (ev):

   -46.0843 -22.4273 -22.3558 -22.3271  -6.9215  -6.1302  -6.0331  -5.0847
    -5.0709  -5.0489  -4.9588  -4.9011   3.6458   6.7823   7.0483   7.2797
     8.1854   8.3958   8.8361   9.0895   9.2765   9.7576  13.1957  13.2856
    13.5467  15.0446

          k = 0.0500 0.1500 0.3500 (  5080 PWs)   bands (ev):

   -46.0840 -22.4266 -22.3727 -22.3265  -6.7875  -6.0766  -5.9892  -5.1039
    -5.0800  -5.0485  -4.9859  -4.8977   3.3988   6.5163   7.1582   7.3331
     7.9404   8.2343   8.7802   9.0833   9.2584  10.0038  13.2019  13.6860
    13.8930  14.4226

          k = 0.0500 0.1500 0.4500 (  5079 PWs)   bands (ev):

   -46.0838 -22.4261 -22.3832 -22.3261  -6.7030  -6.0429  -5.9591  -5.1191
    -5.0883  -5.0482  -4.9948  -4.9002   3.2656   6.2579   7.2735   7.4952
     7.7659   7.9757   8.8140   9.1470   9.2298  10.2027  13.1836  13.9168
    13.9496  14.1354

          k = 0.0500 0.2500 0.2500 (  5076 PWs)   bands (ev):

   -46.0840 -22.4447 -22.3550 -22.3264  -6.7774  -6.1109  -5.9900  -5.0891
    -5.0748  -5.0566  -4.9346  -4.9144   3.4219   6.6526   7.0534   7.1876
     7.9674   8.1180   8.6037   9.0679   9.4571   9.9031  13.2554  13.6012
    13.8204  15.0017

          k = 0.0500 0.2500 0.3500 (  5080 PWs)   bands (ev):

   -46.0836 -22.4440 -22.3719 -22.3258  -6.6646  -6.0768  -5.9361  -5.0989
    -5.0790  -5.0579  -4.9451  -4.8929   3.2304   6.4776   6.9395   7.2629
     7.7480   8.0879   8.5034   8.8933   9.5694   9.9120  13.5695  13.6838
    14.0782  14.7162

          k = 0.0500 0.2500 0.4500 (  5084 PWs)   bands (ev):

   -46.0834 -22.4435 -22.3823 -22.3254  -6.5997  -6.0540  -5.8944  -5.1055
    -5.0867  -5.0591  -4.9384  -4.8892   3.1218   6.2542   6.9668   7.2646
     7.6521   8.0867   8.4426   8.8855   9.5915   9.8801  13.5735  13.9078
    14.2729  14.5284

          k = 0.0500 0.3500 0.3500 (  5079 PWs)   bands (ev):

   -46.0833 -22.4613 -22.3711 -22.3251  -6.5651  -6.0422  -5.8765  -5.0976
    -5.0817  -5.0607  -4.9677  -4.8348   3.0676   6.2953   6.6811   7.2537
     7.6571   7.9477   8.3867   8.8330   9.5597   9.9433  13.6430  13.9687
    14.2688  15.0312

          k = 0.0500 0.3500 0.4500 (  5079 PWs)   bands (ev):

   -46.0831 -22.4607 -22.3815 -22.3247  -6.5352  -6.0086  -5.8227  -5.0988
    -5.0853  -5.0639  -4.9758  -4.8004   2.9800   6.1804   6.5461   7.3198
     7.4793   8.1188   8.2903   8.7170   9.3680  10.0162  13.8783  13.9642
    14.4313  15.0863

          k = 0.0500 0.4500 0.4500 (  5100 PWs)   bands (ev):

   -46.0829 -22.4713 -22.3810 -22.3243  -6.5181  -5.9491  -5.7742  -5.1011
    -5.0846  -5.0644  -4.9998  -4.7492   2.8937   5.9945   6.4319   7.3013
     7.4536   8.0578   8.3436   8.6453   9.0539  10.1942  13.8618  14.1996
    14.5408  15.4482

          k = 0.1500 0.1500 0.1500 (  5095 PWs)   bands (ev):

   -46.0845 -22.4275 -22.3384 -22.3381  -6.9764  -6.1579  -6.0500  -5.0765
    -5.0671  -5.0490  -4.9244  -4.9113   3.7921   6.7971   6.8475   7.4528
     8.1841   8.3326   8.9315   9.2902   9.4323   9.4804  13.0373  13.2600
    13.2938  15.4892

          k = 0.1500 0.1500 0.2500 (  5084 PWs)   bands (ev):

   -46.0841 -22.4268 -22.3553 -22.3376  -6.8536  -6.1161  -6.0107  -5.0910
    -5.0683  -5.0454  -4.9409  -4.9013   3.5669   6.7402   6.8422   7.3054
     7.9659   8.1414   8.9617   9.2129   9.3840   9.6658  13.2242  13.4105
    13.5427  15.1397

          k = 0.1500 0.1500 0.3500 (  5082 PWs)   bands (ev):

   -46.0838 -22.4261 -22.3723 -22.3370  -6.7320  -6.0716  -5.9674  -5.1037
    -5.0612  -5.0392  -4.9643  -4.8977   3.3624   6.5147   6.8494   7.1868
     7.7637   8.1910   8.7167   9.2606   9.3952   9.8759  13.1688  13.7357
    13.8840  14.6309

          k = 0.1500 0.1500 0.4500 (  5084 PWs)   bands (ev):

   -46.0836 -22.4257 -22.3827 -22.3366  -6.6584  -6.0429  -5.9371  -5.1088
    -5.0557  -5.0319  -4.9806  -4.9014   3.2470   6.2638   6.8470   7.2324
     7.6688   8.3056   8.4685   9.3317   9.3802   9.9824  13.1061  13.9525
    14.1208  14.3850

          k = 0.1500 0.2500 0.2500 (  5081 PWs)   bands (ev):

   -46.0838 -22.4443 -22.3546 -22.3369  -6.7072  -6.1022  -5.9925  -5.0931
    -5.0776  -5.0320  -4.9157  -4.8968   3.4148   6.5932   6.7111   7.1274
     7.6787   7.9633   8.8879   9.2578   9.5005   9.7534  13.2916  13.5923
    13.7740  14.9445

          k = 0.1500 0.2500 0.3500 (  5080 PWs)   bands (ev):

   -46.0834 -22.4435 -22.3715 -22.3363  -6.5994  -6.0855  -5.9449  -5.0961
    -5.0670  -5.0217  -4.9186  -4.8774   3.2741   6.4501   6.6714   6.8951
     7.3834   8.0090   8.9191   9.0892   9.5704   9.7530  13.4156  13.7136
    14.0188  14.8986

          k = 0.1500 0.2500 0.4500 (  5077 PWs)   bands (ev):

   -46.0832 -22.4431 -22.3819 -22.3359  -6.5386  -6.0782  -5.9039  -5.0949
    -5.0574  -5.0185  -4.9125  -4.8758   3.1887   6.2533   6.6362   6.8272
     7.2941   8.1068   8.7293   9.1778   9.5073   9.7347  13.4239  13.8959
    14.2172  14.9277

          k = 0.1500 0.3500 0.3500 (  5081 PWs)   bands (ev):

   -46.0831 -22.4608 -22.3707 -22.3356  -6.4880  -6.0696  -5.9202  -5.0925
    -5.0600  -5.0009  -4.9259  -4.8194   3.1717   6.2599   6.5770   6.6594
[...]
    -4.9003  -4.8263  -4.7057  -4.5852   3.4053   6.3168   6.3546   6.8546
     7.4356   7.4752   9.0349   9.2437   9.5210   9.6047  13.2621  13.6554
    13.7588  15.2328

          k = 0.2500 0.2500 0.3500 (  5072 PWs)   bands (ev):

   -46.1573 -22.5004 -22.4554 -22.4379  -6.6566  -6.2840  -6.1335  -4.8983
    -4.8827  -4.7938  -4.6671  -4.5734   3.2987   6.1700   6.2183   6.5505
     7.1351   7.5060   8.9891   9.3397   9.4664   9.6290  13.4049  13.7093
    13.9456  15.4256

          k = 0.2500 0.2500 0.4500 (  5073 PWs)   bands (ev):

   -46.1571 -22.4999 -22.4658 -22.4374  -6.5896  -6.2452  -6.1616  -4.8956
    -4.8709  -4.7687  -4.6392  -4.5763   3.2288   6.0519   6.0892   6.4146
     7.0382   7.5787   8.8246   9.3750   9.4077   9.6742  13.5052  13.7848
    14.1250  15.6982

          k = 0.2500 0.3500 0.3500 (  5057 PWs)   bands (ev):

   -46.1570 -22.5174 -22.4547 -22.4372  -6.6016  -6.2914  -6.0454  -4.8883
    -4.8667  -4.7709  -4.6447  -4.5369   3.3527   5.9554   5.9788   6.3874
     6.7648   7.3111   8.7449   9.4026   9.4546   9.8193  13.5095  13.9189
    14.0944  15.6693

          k = 0.2500 0.3500 0.4500 (  5063 PWs)   bands (ev):

   -46.1568 -22.5169 -22.4650 -22.4368  -6.5641  -6.2475  -6.0626  -4.8831
    -4.8524  -4.7499  -4.6183  -4.5160   3.3337   5.8087   5.9208   6.1896
     6.6473   7.3516   8.4444   9.4043   9.4643   9.9333  13.7504  13.8743
    14.2308  16.0512

          k = 0.2500 0.4500 0.4500 (  5070 PWs)   bands (ev):

   -46.1566 -22.5273 -22.4645 -22.4363  -6.5630  -6.2494  -5.9829  -4.8794
    -4.8361  -4.7361  -4.6067  -4.4792   3.3913   5.7233   5.7428   6.0883
     6.4191   7.3007   8.1086   9.4269   9.4793  10.0916  13.8224  14.0721
    14.3235  16.2815

          k = 0.3500 0.3500 0.3500 (  5055 PWs)   bands (ev):

   -46.1566 -22.5166 -22.4540 -22.4539  -6.4746  -6.3087  -6.0894  -4.8593
    -4.8590  -4.7099  -4.5756  -4.5132   3.4118   5.7128   5.7963   6.1605
     6.7770   6.8133   8.1888   9.6809   9.7170   9.8618  13.6797  14.0403
    14.0662  16.0634

          k = 0.3500 0.3500 0.4500 (  5056 PWs)   bands (ev):

   -46.1564 -22.5161 -22.4643 -22.4535  -6.4217  -6.2863  -6.1207  -4.8554
    -4.8402  -4.6661  -4.5409  -4.4959   3.4299   5.5849   5.7569   5.9798
     6.5881   6.8334   7.7522   9.7805   9.7953   9.9485  13.8841  14.0013
    14.1946  16.4725

          k = 0.3500 0.4500 0.4500 (  5051 PWs)   bands (ev):

   -46.1562 -22.5265 -22.4638 -22.4531  -6.4280  -6.3028  -6.0378  -4.8459
    -4.8304  -4.6478  -4.5088  -4.4559   3.6215   5.4013   5.5561   5.8712
     6.4095   6.7317   7.3106   9.8222   9.8930  10.0950  14.0000  14.1466
    14.2770  16.7496

          k = 0.4500 0.4500 0.4500 (  5034 PWs)   bands (ev):

   -46.1560 -22.5260 -22.4634 -22.4634  -6.3464  -6.3302  -6.0698  -4.8300
    -4.8227  -4.5911  -4.4505  -4.4419   3.7537   5.3681   5.4259   5.7621
     6.4022   6.4497   6.7045   9.9997  10.0863  10.1029  14.1652  14.2473
    14.2527  17.1545

          k =-0.0500 0.1500 0.0500 (  5074 PWs)   bands (ev):

   -46.1591 -22.4862 -22.4129 -22.4129  -7.3164  -6.3898  -6.1714  -4.8945
    -4.8940  -4.8622  -4.8015  -4.6315   4.2671   6.6800   6.7010   7.3910
     8.5793   8.5889   9.0142   9.0171   9.2892   9.3556  12.4064  13.2031
    13.2336  14.6448

          k =-0.0500 0.2500 0.0500 (  5093 PWs)   bands (ev):

   -46.1588 -22.5036 -22.4122 -22.4122  -7.1904  -6.3536  -6.1110  -4.9065
    -4.9018  -4.8612  -4.7858  -4.6724   3.9112   6.7285   6.7415   7.1594
     8.3532   8.3662   8.9722   9.0661   9.3223   9.5533  12.4083  13.5886
    13.6285  14.6502

          k =-0.0500 0.3500 0.0500 (  5090 PWs)   bands (ev):

   -46.1584 -22.5208 -22.4116 -22.4116  -7.0627  -6.3156  -6.0469  -4.9183
    -4.9097  -4.8602  -4.7695  -4.7154   3.6193   6.5256   6.8020   6.9534
     8.1656   8.1800   8.9124   9.1755   9.3596  10.0187  12.4094  13.9605
    14.0079  14.2216

          k =-0.0500 0.4500 0.0500 (  5073 PWs)   bands (ev):

   -46.1582 -22.5315 -22.4112 -22.4112  -6.9832  -6.2910  -6.0051  -4.9255
    -4.9145  -4.8596  -4.7593  -4.7432   3.4622   6.2343   6.8387   6.9752
     8.0624   8.0667   8.8733   9.2273   9.3842  10.4697  12.4085  13.5252
    14.1834  14.2458

          k = 0.1500 0.0500 0.1500 (  5079 PWs)   bands (ev):

   -46.1589 -22.4747 -22.4236 -22.4233  -7.2221  -6.3697  -6.1913  -4.9154
    -4.8945  -4.8709  -4.7837  -4.6042   3.9978   6.6610   6.9033   7.3673
     8.3598   8.3917   8.8888   9.0590   9.1590   9.6442  12.8925  12.9861
    13.0527  15.2058

          k =-0.0500 0.2500 0.1500 (  5077 PWs)   bands (ev):

   -46.1586 -22.5031 -22.4228 -22.4118  -7.1133  -6.3441  -6.0973  -4.9086
    -4.8976  -4.8687  -4.7845  -4.6496   3.7611   6.5922   6.8035   7.2822
     8.0609   8.3002   8.7117   9.1002   9.1753   9.7697  12.6989  13.5670
    13.6445  14.9746

          k = 0.2500 0.0500 0.1500 (  5077 PWs)   bands (ev):

   -46.1586 -22.4740 -22.4404 -22.4228  -7.0791  -6.3357  -6.1871  -4.9324
    -4.8929  -4.8679  -4.7643  -4.6094   3.6797   6.6287   6.9417   7.2670
     8.0183   8.3229   8.7841   9.0610   9.1788   9.8135  13.0012  13.2273
    13.3340  15.2159

          k =-0.0500 0.3500 0.1500 (  5080 PWs)   bands (ev):

   -46.1582 -22.5203 -22.4221 -22.4112  -6.9951  -6.3131  -6.0286  -4.9191
    -4.8940  -4.8681  -4.7749  -4.6778   3.5157   6.3811   6.8115   7.0793
     7.9108   8.1543   8.6897   9.1218   9.1860  10.1193  12.6915  13.9280
    14.0190  14.4595

          k = 0.3500 0.0500 0.1500 (  5080 PWs)   bands (ev):

   -46.1582 -22.4734 -22.4573 -22.4221  -6.9273  -6.2988  -6.1913  -4.9437
    -4.8875  -4.8615  -4.7427  -4.6292   3.4183   6.3587   6.9753   7.3246
     7.7356   8.2687   8.5619   9.0917   9.2562  10.0881  13.0128  13.5913
    13.6886  14.9163

          k =-0.0500 0.4500 0.1500 (  5079 PWs)   bands (ev):

   -46.1580 -22.5309 -22.4216 -22.4108  -6.9234  -6.2928  -5.9822  -4.9258
    -4.8915  -4.8676  -4.7689  -4.6959   3.3786   6.1374   6.7929   7.0733
     7.8303   8.0646   8.7168   9.1157   9.1987  10.3889  12.6818  13.9496
    14.1536  14.2511

          k = 0.4500 0.0500 0.1500 (  5079 PWs)   bands (ev):

   -46.1580 -22.4729 -22.4679 -22.4217  -6.8276  -6.2675  -6.2063  -4.9476
    -4.8839  -4.8559  -4.7142  -4.6616   3.2794   6.1005   7.0784   7.3491
     7.7078   7.9684   8.5760   9.0802   9.3006  10.3352  13.0028  13.8256
    13.9420  14.4373

          k = 0.2500 0.0500 0.2500 (  5076 PWs)   bands (ev):

   -46.1582 -22.4734 -22.4398 -22.4396  -6.9438  -6.3014  -6.1978  -4.9350
    -4.8928  -4.8499  -4.7367  -4.6127   3.4152   6.6111   6.8337   7.2324
     7.8685   7.9811   8.7386   8.9728   9.3501   9.9118  13.2028  13.2942
    13.5535  15.3367

          k =-0.0500 0.3500 0.2500 (  5080 PWs)   bands (ev):

   -46.1579 -22.5195 -22.4390 -22.4105  -6.8957  -6.2936  -5.9972  -4.9169
    -4.8844  -4.8723  -4.7776  -4.6223   3.3561   6.2331   6.8878   7.0109
     7.7378   7.8588   8.3971   8.8694   9.4410  10.0767  13.1072  13.9890
    14.0772  14.8316

          k = 0.3500 0.0500 0.2500 (  5080 PWs)   bands (ev):

   -46.1579 -22.4727 -22.4566 -22.4390  -6.8045  -6.2661  -6.2100  -4.9356
    -4.8840  -4.8245  -4.7124  -4.6297   3.1807   6.3703   6.7629   7.2267
     7.6969   8.0045   8.4653   9.0231   9.4588   9.9728  13.2389  13.6171
    13.8065  15.1714

          k =-0.0500 0.4500 0.2500 (  5084 PWs)   bands (ev):

   -46.1577 -22.5300 -22.4385 -22.4101  -6.8435  -6.2729  -5.9414  -4.9233
    -4.8800  -4.8632  -4.7817  -4.6221   3.2478   6.0094   6.8119   7.0112
     7.6792   7.8214   8.3301   8.8888   9.4527  10.1599  13.0971  14.2082
    14.2777  14.6069

          k = 0.4500 0.0500 0.2500 (  5084 PWs)   bands (ev):

   -46.1577 -22.4722 -22.4670 -22.4385  -6.7166  -6.2393  -6.2224  -4.9346
    -4.8767  -4.7993  -4.6908  -4.6587   3.0492   6.1103   6.8437   7.1215
     7.7387   8.0121   8.2728   9.0868   9.4668  10.0094  13.2334  13.8599
    13.9915  14.9716

          k = 0.3500 0.0500 0.3500 (  5079 PWs)   bands (ev):

   -46.1575 -22.4721 -22.4558 -22.4558  -6.6890  -6.2322  -6.2181  -4.9285
    -4.8687  -4.7843  -4.6823  -4.6424   2.9578   6.2935   6.4902   7.2537
     7.6120   7.9065   8.4125   8.8469   9.7270   9.7521  13.5540  13.6639
    13.9529  15.2862

          k =-0.0500 0.4500 0.3500 (  5079 PWs)   bands (ev):

   -46.1573 -22.5291 -22.4553 -22.4095  -6.7925  -6.2127  -5.9004  -4.9217
    -4.8893  -4.8541  -4.7776  -4.5541   3.1259   5.9033   6.5782   7.0477
     7.3913   7.7560   8.2319   8.6549   9.5560  10.0248  13.4796  14.2349
    14.4057  15.1906

          k = 0.4500 0.0500 0.3500 (  5079 PWs)   bands (ev):

   -46.1573 -22.4715 -22.4662 -22.4553  -6.6255  -6.2180  -6.2060  -4.9246
    -4.8544  -4.7457  -4.6714  -4.6598   2.8273   6.0663   6.5008   7.2152
     7.5472   8.0565   8.2440   8.8141   9.5568   9.8697  13.6014  13.8761
    14.0638  15.2707

          k = 0.4500 0.0500 0.4500 (  5100 PWs)   bands (ev):

   -46.1571 -22.4710 -22.4657 -22.4657  -6.5863  -6.1921  -6.1892  -4.9195
    -4.8308  -4.7069  -4.6828  -4.6500   2.6943   5.9433   6.3989   7.3191
     7.3716   8.1638   8.2512   8.6281   9.2975  10.0288  13.8691  13.8926
    14.1192  15.2438

          k =-0.1500 0.2500 0.1500 (  5084 PWs)   bands (ev):

   -46.1584 -22.5027 -22.4224 -22.4223  -7.0351  -6.3360  -6.0936  -4.9133
    -4.8945  -4.8676  -4.7687  -4.6306   3.6599   6.5828   6.6107   7.3084
     7.9290   8.0101   8.7227   9.1247   9.3067   9.7453  12.8819  13.5330
    13.6644  15.4168

          k =-0.1500 0.3500 0.1500 (  5082 PWs)   bands (ev):

   -46.1580 -22.5198 -22.4217 -22.4216  -6.9240  -6.3148  -6.0218  -4.9224
    -4.8807  -4.8615  -4.7629  -4.6500   3.4621   6.3827   6.5170   7.0750
     7.8840   7.8927   8.5914   9.1583   9.3224  10.0172  12.8405  13.8878
    14.0176  14.6826

          k =-0.1500 0.4500 0.1500 (  5084 PWs)   bands (ev):

   -46.1578 -22.5304 -22.4213 -22.4212  -6.8581  -6.3014  -5.9716  -4.9269
    -4.8752  -4.8517  -4.7618  -4.6632   3.3462   6.1335   6.4705   7.0395
     7.8288   7.9036   8.5083   9.1767   9.3219  10.1825  12.8049  14.1154
    14.2343  14.3708

          k = 0.2500 0.1500 0.2500 (  5081 PWs)   bands (ev):

   -46.1580 -22.4840 -22.4394 -22.4391  -6.8775  -6.3038  -6.1692  -4.9220
    -4.8966  -4.8421  -4.7242  -4.6014   3.4180   6.5082   6.6528   6.9574
     7.6841   7.9093   8.9180   9.0519   9.3977   9.7570  13.2839  13.4151
    13.5892  15.3408

          k =-0.1500 0.3500 0.2500 (  5080 PWs)   bands (ev):

   -46.1577 -22.5190 -22.4385 -22.4210  -6.8183  -6.3041  -6.0092  -4.9161
    -4.8856  -4.8379  -4.7440  -4.6037   3.3674   6.2201   6.4793   6.8551
     7.3822   7.8071   8.7096   9.0722   9.4918   9.8626  13.1303  13.9147
    14.0368  15.0161

          k = 0.3500 0.1500 0.2500 (  5080 PWs)   bands (ev):

   -46.1577 -22.4833 -22.4561 -22.4386  -6.7408  -6.2740  -6.1889  -4.9207
    -4.8850  -4.8128  -4.6942  -4.6086   3.2289   6.3345   6.5668   6.7568
     7.4390   7.9699   8.7755   9.1171   9.4954   9.7485  13.3111  13.6298
    13.8370  15.2608

          k =-0.1500 0.4500 0.2500 (  5077 PWs)   bands (ev):

   -46.1575 -22.5295 -22.4381 -22.4206  -6.7687  -6.2945  -5.9512  -4.9186
    -4.8791  -4.8181  -4.7493  -4.6025   3.2855   6.0203   6.3868   6.7599
     7.3607   7.7890   8.6116   9.1055   9.5024   9.8802  13.1164  14.1410
    14.2233  14.9569

          k = 0.4500 0.1500 0.2500 (  5077 PWs)   bands (ev):

   -46.1574 -22.4828 -22.4666 -22.4381  -6.6563  -6.2431  -6.2118  -4.9188
    -4.8763  -4.7865  -4.6660  -4.6325   3.1180   6.1036   6.5243   6.7246
     7.3530   8.0748   8.6017   9.1759   9.5086   9.7222  13.3020  13.8133
    14.0399  15.2833

          k = 0.3500 0.1500 0.3500 (  5081 PWs)   bands (ev):

   -46.1573 -22.4826 -22.4554 -22.4553  -6.6166  -6.2511  -6.2131  -4.9122
    -4.8666  -4.7651  -4.6600  -4.6111   3.0560   6.2798   6.3820   6.6048
     7.1296   7.9425   8.8898   8.9996   9.4619   9.7336  13.5278  13.6989
    13.9577  15.5171

          k =-0.1500 0.4500 0.3500 (  5079 PWs)   bands (ev):

   -46.1571 -22.5286 -22.4549 -22.4199  -6.7119  -6.2462  -5.9310  -4.9120
    -4.8698  -4.8109  -4.7263  -4.5395   3.2188   5.8872   6.3871   6.5428
     6.7890   7.8398   8.7170   8.9304   9.2962   9.9479  13.4867  14.1344
    14.3104  15.4997

          k = 0.4500 0.1500 0.3500 (  5079 PWs)   bands (ev):

   -46.1571 -22.4821 -22.4658 -22.4549  -6.5465  -6.2345  -6.2219  -4.9077
    -4.8513  -4.7216  -4.6428  -4.6243   2.9479   6.0586   6.4116   6.5550
     6.9870   8.0041   8.7639   9.0515   9.2389   9.8566  13.6045  13.8405
    14.0875  15.7511

          k = 0.4500 0.1500 0.4500 (  5073 PWs)   bands (ev):

   -46.1569 -22.4815 -22.4653 -22.4653  -6.4958  -6.2191  -6.2190  -4.9024
    -4.8287  -4.6702  -4.6350  -4.6277   2.8378   5.9338   6.3716   6.6297
     6.7208   8.0214   8.7460   8.9546   9.0009  10.0240  13.8381  13.8720
    14.1480  15.8473

          k =-0.2500 0.3500 0.2500 (  5072 PWs)   bands (ev):

   -46.1573 -22.5182 -22.4379 -22.4378  -6.6990  -6.3124  -6.0265  -4.9014
    -4.8815  -4.8021  -4.6915  -4.5713   3.3699   6.1160   6.1740   6.5788
     7.1629   7.3786   8.9485   9.3123   9.5458   9.6421  13.2587  13.9489
    13.9678  15.3062

          k =-0.2500 0.4500 0.2500 (  5073 PWs)   bands (ev):

   -46.1571 -22.5287 -22.4375 -22.4373  -6.6579  -6.3152  -5.9635  -4.9011
    -4.8715  -4.7796  -4.6874  -4.5636   3.3372   5.9940   6.0353   6.3896
     7.1211   7.3444   8.8169   9.3395   9.5033   9.6962  13.2910  14.1309
    14.1568  15.4451

          k = 0.3500 0.2500 0.3500 (  5057 PWs)   bands (ev):

   -46.1570 -22.4996 -22.4547 -22.4546  -6.5238  -6.2806  -6.1760  -4.8855
    -4.8630  -4.7376  -4.6191  -4.5616   3.2266   6.0470   6.1029   6.2718
     6.8844   7.3180   8.7308   9.4750   9.4823   9.7561  13.5422  13.8264
    14.0033  15.7525

          k =-0.2500 0.4500 0.3500 (  5063 PWs)   bands (ev):

   -46.1568 -22.5279 -22.4542 -22.4367  -6.5816  -6.2949  -5.9748  -4.8858
    -4.8531  -4.7526  -4.6339  -4.5140   3.3749   5.8036   5.8947   6.1867
     6.6348   7.2700   8.4817   9.4201   9.4656   9.9293  13.5881  14.0923
    14.2312  15.9139

          k = 0.4500 0.2500 0.3500 (  5063 PWs)   bands (ev):

   -46.1568 -22.4991 -22.4651 -22.4542  -6.4494  -6.2592  -6.2114  -4.8806
    -4.8465  -4.6927  -4.5928  -4.5609   3.1679   5.9632   6.0517   6.1138
     6.7219   7.3365   8.4107   9.5023   9.5132   9.8610  13.6984  13.8665
    14.1321  16.1202

          k = 0.4500 0.2500 0.4500 (  5070 PWs)   bands (ev):

   -46.1566 -22.4986 -22.4646 -22.4646  -6.3597  -6.2640  -6.2463  -4.8747
    -4.8261  -4.6370  -4.5651  -4.5596   3.1097   5.9008   6.0421   6.0459
     6.4639   7.2993   8.0159   9.5443   9.5462  10.0166  13.8843  13.9315
    14.1805  16.4556

          k =-0.3500 0.4500 0.3500 (  5056 PWs)   bands (ev):

   -46.1564 -22.5271 -22.4535 -22.4535  -6.4632  -6.3255  -6.0142  -4.8570
    -4.8428  -4.6906  -4.5487  -4.4837   3.5316   5.5753   5.6180   5.9883
     6.5649   6.7946   7.8169   9.7092   9.8154   9.9702  13.8038  14.1367
    14.2154  16.3588

          k = 0.4500 0.3500 0.4500 (  5051 PWs)   bands (ev):

   -46.1562 -22.5156 -22.4639 -22.4639  -6.3286  -6.3058  -6.1618  -4.8471
    -4.8239  -4.6099  -4.4942  -4.4863   3.4609   5.5954   5.6426   5.8558
     6.4501   6.6954   7.2341   9.9190   9.9238  10.0124  14.0415  14.0977
    14.2056  16.8601

     the Fermi energy is    10.3847 ev

!    total energy              =    -364.96116730 Ry
     Harris-Foulkes estimate   =    -364.96116730 Ry
     estimated scf accuracy    <          5.8E-11 Ry

     The total energy is the sum of the following terms:

     one-electron contribution =     -86.40834199 Ry
     hartree contribution      =      72.60272037 Ry
     xc contribution           =     -85.88431191 Ry
     ewald contribution        =    -265.27727974 Ry
     smearing contrib. (-TS)   =       0.00604597 Ry

     convergence has been achieved in   8 iterations

     Forces acting on atoms (cartesian axes, Ry/au):

     atom    1 type  1   force =     0.00000000   -0.01075654    0.00000000
     atom    2 type  2   force =     0.00000000    0.01006550    0.00000000
     atom    3 type  3   force =     0.00000000   -0.00006665    0.00000000
     atom    4 type  3   force =     0.00000000    0.00082434    0.00000000
     atom    5 type  3   force =     0.00000000   -0.00006665    0.00000000

     Total force =     0.000830     Total SCF correction =     0.000007


     Computing stress (Cartesian axis) and pressure

          total   stress  (Ry/bohr**3)                   (kbar)     P=   37.43
   0.00015109   0.00000000   0.00000000         22.23      0.00      0.00
   0.00000000   0.00046115   0.00000000          0.00     67.84      0.00
   0.00000000   0.00000000   0.00015109          0.00      0.00     22.23


     bfgs converged in  23 scf cycles and  21 bfgs steps
     (criteria: energy <  1.0E-04 Ry, force <  1.0E-03 Ry/Bohr)

     End of BFGS Geometry Optimization

     Final energy   =    -364.9611673030 Ry
Begin final coordinates

ATOMIC_POSITIONS (crystal)
Pb       0.000000000   0.000000000   0.000000000    0   0   0
Ti       0.500000000   0.451000000   0.500000000    0   0   0
O        0.500000000   0.395158724   0.000000000
O        0.500000000  -0.096457010   0.500000000
O        0.000000000   0.395158724   0.500000000
End final coordinates



     Writing output data file PbTiO3.save/

     init_run     :     11.65s CPU     15.51s WALL (       1 calls)
     electrons    :   6114.50s CPU   8182.96s WALL (      23 calls)
     update_pot   :      8.55s CPU      8.95s WALL (      22 calls)
     forces       :    122.74s CPU    136.69s WALL (      23 calls)
     stress       :    314.68s CPU    340.52s WALL (      23 calls)

     Called by init_run:
     wfcinit      :      8.73s CPU     12.29s WALL (       1 calls)
     potinit      :      0.28s CPU      0.30s WALL (       1 calls)
     hinit0       :      1.97s CPU      1.98s WALL (       1 calls)

     Called by electrons:
     c_bands      :   5266.94s CPU   6908.74s WALL (     208 calls)
     sum_band     :    671.96s CPU   1040.41s WALL (     208 calls)
     v_of_rho     :     47.60s CPU     50.95s WALL (     230 calls)
     newd         :    139.63s CPU    199.36s WALL (     230 calls)
     mix_rho      :      4.29s CPU      4.92s WALL (     208 calls)

     Called by c_bands:
     init_us_2    :     88.72s CPU    108.79s WALL (   34725 calls)
     cegterg      :   5014.06s CPU   6639.61s WALL (   15600 calls)

     Called by sum_band:
     sum_band:bec :      0.96s CPU      1.28s WALL (   15600 calls)
     addusdens    :    172.52s CPU    227.46s WALL (     208 calls)

     Called by *egterg:
     h_psi        :   2749.73s CPU   4183.70s WALL (   71115 calls)
     s_psi        :    522.65s CPU    568.15s WALL (   71115 calls)
     g_psi        :     49.30s CPU     60.96s WALL (   55440 calls)
     cdiaghg      :    101.17s CPU    128.56s WALL (   69315 calls)

     Called by h_psi:
     h_psi:pot    :   2738.63s CPU   4167.01s WALL (   71115 calls)
     h_psi:calbec :    515.84s CPU    569.50s WALL (   71115 calls)
     vloc_psi     :   1689.37s CPU   3026.94s WALL (   71115 calls)
     add_vuspsi   :    528.72s CPU    565.04s WALL (   71115 calls)

     General routines
     calbec       :    796.48s CPU    872.41s WALL (   95340 calls)
     fft          :     21.90s CPU     23.98s WALL (    3542 calls)
     ffts         :      0.53s CPU      0.79s WALL (     438 calls)
     fftw         :   1743.66s CPU   3155.85s WALL ( 2706096 calls)
     interpolate  :      1.93s CPU      2.42s WALL (     230 calls)

     Parallel routines

     PWSCF        :      1h49m CPU      2h25m WALL


   This run was terminated on:   6:53:37  14May2020            

=------------------------------------------------------------------------------=
   JOB DONE.
=------------------------------------------------------------------------------=
