
     Program PWSCF v.6.4.1 starts on 14May2020 at 10:10:16 

     This program is part of the open-source Quantum ESPRESSO suite
     for quantum simulation of materials; please cite
         "P. Giannozzi et al., J. Phys.:Condens. Matter 21 395502 (2009);
         "P. Giannozzi et al., J. Phys.:Condens. Matter 29 465901 (2017);
          URL http://www.quantum-espresso.org", 
     in publications or presentations arising from this work. More details at
     http://www.quantum-espresso.org/quote

     Parallel version (MPI), running on     1 processors

     MPI processes distributed on     1 nodes
     Reading input from PTO_7.3_10_0.548.pw.in
Warning: card  &CELL ignored
Warning: card   CELL_DYNAMICS = 'BFGS', ignored
Warning: card  / ignored

     Current dimensions of program PWSCF are:
     Max number of different atomic species (ntypx) = 10
     Max number of k-points (npk) =  40000
     Max angular momentum in pseudopotentials (lmaxx) =  3
     Message from routine read_upf::
     Pseudo file Pb.pbe-dn-rrkjus_psl.0.2.2.UPF has been fixed on the fly.
To avoid this message in the future, permanently fix 
 your pseudo files following these instructions: 
https://gitlab.com/QEF/q-e/blob/master/upftools/how_to_fix_upf.md
     Message from routine read_upf::
     Pseudo file O.pbe-n-rrkjus_psl.0.1.UPF has been fixed on the fly.
To avoid this message in the future, permanently fix 
 your pseudo files following these instructions: 
https://gitlab.com/QEF/q-e/blob/master/upftools/how_to_fix_upf.md
               file Pb.pbe-dn-rrkjus_psl.0.2.2.UPF: wavefunction(s)  6S renormalized

     Subspace diagonalization in iterative solution of the eigenvalue problem:
     a serial algorithm will be used


     G-vector sticks info
     --------------------
     sticks:   dense  smooth     PW     G-vecs:    dense   smooth      PW
     Sum        3389    1353    385               148597    37529    5743



     bravais-lattice index     =            1
     lattice parameter (alat)  =       7.3000  a.u.
     unit-cell volume          =     389.0170 (a.u.)^3
     number of atoms/cell      =            5
     number of atomic types    =            3
     number of electrons       =        44.00
     number of Kohn-Sham states=           26
     kinetic-energy cutoff     =      80.0000  Ry
     charge density cutoff     =     800.0000  Ry
     convergence threshold     =      1.0E-08
     mixing beta               =       0.7000
     number of iterations used =            8  plain     mixing
     Exchange-correlation      = PBE ( 1  4  3  4 0 0)
     nstep                     =           50


     celldm(1)=   7.300000  celldm(2)=   0.000000  celldm(3)=   0.000000
     celldm(4)=   0.000000  celldm(5)=   0.000000  celldm(6)=   0.000000

     crystal axes: (cart. coord. in units of alat)
               a(1) = (   1.000000   0.000000   0.000000 )  
               a(2) = (   0.000000   1.000000   0.000000 )  
               a(3) = (   0.000000   0.000000   1.000000 )  

     reciprocal axes: (cart. coord. in units 2 pi/alat)
               b(1) = (  1.000000  0.000000  0.000000 )  
               b(2) = (  0.000000  1.000000  0.000000 )  
               b(3) = (  0.000000  0.000000  1.000000 )  


     PseudoPot. # 1 for Pb read from file:
     ./Pb.pbe-dn-rrkjus_psl.0.2.2.UPF
     MD5 check sum: 7afc420059c37d6888fc09c0f121e83f
     Pseudo is Ultrasoft + core correction, Zval = 14.0
     Generated using "atomic" code by A. Dal Corso v.5.0.2 svn rev. 9415
     Using radial grid of 1281 points,  6 beta functions with: 
                l(1) =   0
                l(2) =   0
                l(3) =   1
                l(4) =   1
                l(5) =   2
                l(6) =   2
     Q(r) pseudized with 0 coefficients 


     PseudoPot. # 2 for Ti read from file:
     ./Ti.pbe-sp-van_ak.UPF
     MD5 check sum: 8e4df49b7f0d34bbd5052bf3f5ea0213
     Pseudo is Ultrasoft, Zval = 12.0
     Generated by new atomic code, or converted to UPF format
     Using radial grid of  851 points,  6 beta functions with: 
                l(1) =   0
                l(2) =   0
                l(3) =   1
                l(4) =   1
                l(5) =   2
                l(6) =   2
     Q(r) pseudized with  8 coefficients,  rinner =    1.000   1.000   1.000
                                                       1.000   1.000

     PseudoPot. # 3 for O  read from file:
     ./O.pbe-n-rrkjus_psl.0.1.UPF
     MD5 check sum: e057bbcf3229fb5d8c36c0c92f9568b4
     Pseudo is Ultrasoft + core correction, Zval =  6.0
     Generated using "atomic" code by A. Dal Corso v.5.0.2 svn rev. 9415
     Using radial grid of 1095 points,  4 beta functions with: 
                l(1) =   0
                l(2) =   0
                l(3) =   1
                l(4) =   1
     Q(r) pseudized with 0 coefficients 


     atomic species   valence    mass     pseudopotential
        Pb            14.00   207.20000     Pb( 1.00)
        Ti            12.00    47.87000     Ti( 1.00)
        O              6.00    16.00000     O ( 1.00)

      8 Sym. Ops. (no inversion) found



   Cartesian axes

     site n.     atom                  positions (alat units)
         1           Pb  tau(   1) = (   0.0000000   0.0000000   0.0000000  )
         2           Ti  tau(   2) = (   0.5000000   0.5480000   0.5000000  )
         3           O   tau(   3) = (   0.5000000   0.5000000   0.0000000  )
         4           O   tau(   4) = (   0.5000000   0.0000000   0.5000000  )
         5           O   tau(   5) = (   0.0000000   0.5000000   0.5000000  )

     number of k points=    75  Marzari-Vanderbilt smearing, width (Ry)=  0.0250
                       cart. coord. in units 2pi/alat
        k(    1) = (   0.0500000   0.0500000   0.0500000), wk =   0.0160000
        k(    2) = (   0.0500000   0.0500000   0.1500000), wk =   0.0320000
        k(    3) = (   0.0500000   0.0500000   0.2500000), wk =   0.0320000
        k(    4) = (   0.0500000   0.0500000   0.3500000), wk =   0.0320000
        k(    5) = (   0.0500000   0.0500000   0.4500000), wk =   0.0320000
        k(    6) = (   0.0500000   0.1500000   0.1500000), wk =   0.0320000
        k(    7) = (   0.0500000   0.1500000   0.2500000), wk =   0.0320000
        k(    8) = (   0.0500000   0.1500000   0.3500000), wk =   0.0320000
        k(    9) = (   0.0500000   0.1500000   0.4500000), wk =   0.0320000
        k(   10) = (   0.0500000   0.2500000   0.2500000), wk =   0.0320000
        k(   11) = (   0.0500000   0.2500000   0.3500000), wk =   0.0320000
        k(   12) = (   0.0500000   0.2500000   0.4500000), wk =   0.0320000
        k(   13) = (   0.0500000   0.3500000   0.3500000), wk =   0.0320000
        k(   14) = (   0.0500000   0.3500000   0.4500000), wk =   0.0320000
        k(   15) = (   0.0500000   0.4500000   0.4500000), wk =   0.0320000
        k(   16) = (   0.1500000   0.1500000   0.1500000), wk =   0.0160000
        k(   17) = (   0.1500000   0.1500000   0.2500000), wk =   0.0320000
        k(   18) = (   0.1500000   0.1500000   0.3500000), wk =   0.0320000
        k(   19) = (   0.1500000   0.1500000   0.4500000), wk =   0.0320000
        k(   20) = (   0.1500000   0.2500000   0.2500000), wk =   0.0320000
        k(   21) = (   0.1500000   0.2500000   0.3500000), wk =   0.0320000
        k(   22) = (   0.1500000   0.2500000   0.4500000), wk =   0.0320000
        k(   23) = (   0.1500000   0.3500000   0.3500000), wk =   0.0320000
        k(   24) = (   0.1500000   0.3500000   0.4500000), wk =   0.0320000
        k(   25) = (   0.1500000   0.4500000   0.4500000), wk =   0.0320000
        k(   26) = (   0.2500000   0.2500000   0.2500000), wk =   0.0160000
        k(   27) = (   0.2500000   0.2500000   0.3500000), wk =   0.0320000
        k(   28) = (   0.2500000   0.2500000   0.4500000), wk =   0.0320000
        k(   29) = (   0.2500000   0.3500000   0.3500000), wk =   0.0320000
        k(   30) = (   0.2500000   0.3500000   0.4500000), wk =   0.0320000
        k(   31) = (   0.2500000   0.4500000   0.4500000), wk =   0.0320000
        k(   32) = (   0.3500000   0.3500000   0.3500000), wk =   0.0160000
        k(   33) = (   0.3500000   0.3500000   0.4500000), wk =   0.0320000
        k(   34) = (   0.3500000   0.4500000   0.4500000), wk =   0.0320000
        k(   35) = (   0.4500000   0.4500000   0.4500000), wk =   0.0160000
        k(   36) = (  -0.0500000   0.1500000   0.0500000), wk =   0.0160000
        k(   37) = (  -0.0500000   0.2500000   0.0500000), wk =   0.0160000
        k(   38) = (  -0.0500000   0.3500000   0.0500000), wk =   0.0160000
        k(   39) = (  -0.0500000   0.4500000   0.0500000), wk =   0.0160000
        k(   40) = (   0.1500000   0.0500000   0.1500000), wk =   0.0160000
        k(   41) = (  -0.0500000   0.2500000   0.1500000), wk =   0.0320000
        k(   42) = (   0.2500000   0.0500000   0.1500000), wk =   0.0320000
        k(   43) = (  -0.0500000   0.3500000   0.1500000), wk =   0.0320000
        k(   44) = (   0.3500000   0.0500000   0.1500000), wk =   0.0320000
        k(   45) = (  -0.0500000   0.4500000   0.1500000), wk =   0.0320000
        k(   46) = (   0.4500000   0.0500000   0.1500000), wk =   0.0320000
        k(   47) = (   0.2500000   0.0500000   0.2500000), wk =   0.0160000
        k(   48) = (  -0.0500000   0.3500000   0.2500000), wk =   0.0320000
        k(   49) = (   0.3500000   0.0500000   0.2500000), wk =   0.0320000
        k(   50) = (  -0.0500000   0.4500000   0.2500000), wk =   0.0320000
        k(   51) = (   0.4500000   0.0500000   0.2500000), wk =   0.0320000
        k(   52) = (   0.3500000   0.0500000   0.3500000), wk =   0.0160000
        k(   53) = (  -0.0500000   0.4500000   0.3500000), wk =   0.0320000
        k(   54) = (   0.4500000   0.0500000   0.3500000), wk =   0.0320000
        k(   55) = (   0.4500000   0.0500000   0.4500000), wk =   0.0160000
        k(   56) = (  -0.1500000   0.2500000   0.1500000), wk =   0.0160000
        k(   57) = (  -0.1500000   0.3500000   0.1500000), wk =   0.0160000
        k(   58) = (  -0.1500000   0.4500000   0.1500000), wk =   0.0160000
        k(   59) = (   0.2500000   0.1500000   0.2500000), wk =   0.0160000
        k(   60) = (  -0.1500000   0.3500000   0.2500000), wk =   0.0320000
        k(   61) = (   0.3500000   0.1500000   0.2500000), wk =   0.0320000
        k(   62) = (  -0.1500000   0.4500000   0.2500000), wk =   0.0320000
        k(   63) = (   0.4500000   0.1500000   0.2500000), wk =   0.0320000
        k(   64) = (   0.3500000   0.1500000   0.3500000), wk =   0.0160000
        k(   65) = (  -0.1500000   0.4500000   0.3500000), wk =   0.0320000
        k(   66) = (   0.4500000   0.1500000   0.3500000), wk =   0.0320000
        k(   67) = (   0.4500000   0.1500000   0.4500000), wk =   0.0160000
        k(   68) = (  -0.2500000   0.3500000   0.2500000), wk =   0.0160000
        k(   69) = (  -0.2500000   0.4500000   0.2500000), wk =   0.0160000
        k(   70) = (   0.3500000   0.2500000   0.3500000), wk =   0.0160000
        k(   71) = (  -0.2500000   0.4500000   0.3500000), wk =   0.0320000
        k(   72) = (   0.4500000   0.2500000   0.3500000), wk =   0.0320000
        k(   73) = (   0.4500000   0.2500000   0.4500000), wk =   0.0160000
        k(   74) = (  -0.3500000   0.4500000   0.3500000), wk =   0.0160000
        k(   75) = (   0.4500000   0.3500000   0.4500000), wk =   0.0160000

     Dense  grid:   148597 G-vectors     FFT dimensions: (  72,  72,  72)

     Smooth grid:    37529 G-vectors     FFT dimensions: (  45,  45,  45)

     Estimated max dynamical RAM per process >     705.34 MB

     Check: negative core charge=   -0.000006

     Initial potential from superposition of free atoms

     starting charge   42.99760, renormalised to   44.00000
     Starting wfcs are   31 randomized atomic wfcs

     total cpu time spent up to now is       15.4 secs

     Self-consistent Calculation

     iteration #  1     ecut=    80.00 Ry     beta= 0.70
     Davidson diagonalization with overlap
     ethr =  1.00E-02,  avg # of iterations =  2.0

     total cpu time spent up to now is       45.0 secs

     total energy              =    -364.41264524 Ry
     Harris-Foulkes estimate   =    -365.27064021 Ry
     estimated scf accuracy    <       1.08042437 Ry

     iteration #  2     ecut=    80.00 Ry     beta= 0.70
     Davidson diagonalization with overlap
     ethr =  2.46E-03,  avg # of iterations =  4.1

     total cpu time spent up to now is       87.5 secs

     total energy              =    -363.89174446 Ry
     Harris-Foulkes estimate   =    -365.53289367 Ry
     estimated scf accuracy    <       4.88524336 Ry

     iteration #  3     ecut=    80.00 Ry     beta= 0.70
     Davidson diagonalization with overlap
     ethr =  2.46E-03,  avg # of iterations =  4.4

     total cpu time spent up to now is      128.8 secs

     total energy              =    -364.90692111 Ry
     Harris-Foulkes estimate   =    -365.04604999 Ry
     estimated scf accuracy    <       0.37202443 Ry

     iteration #  4     ecut=    80.00 Ry     beta= 0.70
     Davidson diagonalization with overlap
     ethr =  8.46E-04,  avg # of iterations =  4.0

     total cpu time spent up to now is      158.9 secs

     total energy              =    -364.91146327 Ry
     Harris-Foulkes estimate   =    -364.93856356 Ry
     estimated scf accuracy    <       0.07764129 Ry

     iteration #  5     ecut=    80.00 Ry     beta= 0.70
     Davidson diagonalization with overlap
     ethr =  1.76E-04,  avg # of iterations =  4.1

     total cpu time spent up to now is      196.0 secs

     total energy              =    -364.93373108 Ry
     Harris-Foulkes estimate   =    -364.93466608 Ry
     estimated scf accuracy    <       0.00390548 Ry

     iteration #  6     ecut=    80.00 Ry     beta= 0.70
     Davidson diagonalization with overlap
     ethr =  8.88E-06,  avg # of iterations =  3.7

     total cpu time spent up to now is      231.0 secs

     total energy              =    -364.93388218 Ry
     Harris-Foulkes estimate   =    -364.93455211 Ry
     estimated scf accuracy    <       0.00239696 Ry

     iteration #  7     ecut=    80.00 Ry     beta= 0.70
     Davidson diagonalization with overlap
     ethr =  5.45E-06,  avg # of iterations =  2.5

     total cpu time spent up to now is      258.8 secs

     total energy              =    -364.93402873 Ry
     Harris-Foulkes estimate   =    -364.93412613 Ry
     estimated scf accuracy    <       0.00021054 Ry

     iteration #  8     ecut=    80.00 Ry     beta= 0.70
     Davidson diagonalization with overlap
     ethr =  4.79E-07,  avg # of iterations =  3.7

     total cpu time spent up to now is      295.5 secs

     total energy              =    -364.93412200 Ry
     Harris-Foulkes estimate   =    -364.93414198 Ry
     estimated scf accuracy    <       0.00007258 Ry

     iteration #  9     ecut=    80.00 Ry     beta= 0.70
     Davidson diagonalization with overlap
     ethr =  1.65E-07,  avg # of iterations =  2.0

     total cpu time spent up to now is      322.2 secs

     total energy              =    -364.93412530 Ry
     Harris-Foulkes estimate   =    -364.93412822 Ry
     estimated scf accuracy    <       0.00000796 Ry

     iteration # 10     ecut=    80.00 Ry     beta= 0.70
     Davidson diagonalization with overlap
     ethr =  1.81E-08,  avg # of iterations =  3.1

     total cpu time spent up to now is      357.3 secs

     total energy              =    -364.93412897 Ry
     Harris-Foulkes estimate   =    -364.93412921 Ry
     estimated scf accuracy    <       0.00000135 Ry

     iteration # 11     ecut=    80.00 Ry     beta= 0.70
     Davidson diagonalization with overlap
     ethr =  3.06E-09,  avg # of iterations =  1.6

     total cpu time spent up to now is      383.8 secs

     total energy              =    -364.93412886 Ry
     Harris-Foulkes estimate   =    -364.93412904 Ry
     estimated scf accuracy    <       0.00000051 Ry

     iteration # 12     ecut=    80.00 Ry     beta= 0.70
     Davidson diagonalization with overlap
     ethr =  1.16E-09,  avg # of iterations =  3.0

     total cpu time spent up to now is      414.0 secs

     total energy              =    -364.93412899 Ry
     Harris-Foulkes estimate   =    -364.93412899 Ry
     estimated scf accuracy    <       0.00000002 Ry

     iteration # 13     ecut=    80.00 Ry     beta= 0.70
     Davidson diagonalization with overlap
     ethr =  4.32E-11,  avg # of iterations =  3.4

     total cpu time spent up to now is      452.3 secs

     End of self-consistent calculation

          k = 0.0500 0.0500 0.0500 (  4713 PWs)   bands (ev):

   -44.5218 -20.9673 -20.8179 -20.8178  -6.3846  -5.2485  -5.1259  -3.6948
    -3.6729  -3.6724  -3.5314  -3.5209   5.8324   7.7905   7.8503   8.0610
     9.7980   9.8201  10.2309  10.4550  10.7302  10.7344  13.9226  14.4566
    14.4651  16.5147

          k = 0.0500 0.0500 0.1500 (  4716 PWs)   bands (ev):

   -44.5215 -20.9667 -20.8335 -20.8173  -6.2889  -5.2082  -5.0861  -3.7057
    -3.6840  -3.6719  -3.5679  -3.5151   5.4296   7.8534   7.9389   8.3156
     9.5978   9.7527  10.2114  10.3186  10.5664  10.7288  14.2811  14.4652
    14.5653  16.7286

          k = 0.0500 0.0500 0.2500 (  4713 PWs)   bands (ev):

   -44.5210 -20.9657 -20.8588 -20.8163  -6.1299  -5.1384  -5.0210  -3.7242
    -3.7024  -3.6707  -3.6325  -3.5038   4.9684   7.9205   8.0361   8.2699
     9.5027   9.5616  10.1403  10.2282  10.4969  10.8218  14.4650  14.8035
    14.9276  16.7144

          k = 0.0500 0.0500 0.3500 (  4709 PWs)   bands (ev):

   -44.5204 -20.9647 -20.8838 -20.8154  -5.9655  -5.0595  -4.9570  -3.7516
    -3.7236  -3.6905  -3.6695  -3.4946   4.6254   7.5583   8.2022   8.3777
     9.2279   9.3577  10.0383  10.1593  10.5938  11.3121  14.4645  15.2788
    15.3777  15.8351

          k = 0.0500 0.0500 0.4500 (  4711 PWs)   bands (ev):

   -44.5201 -20.9641 -20.8992 -20.8148  -5.8607  -5.0027  -4.9205  -3.7859
    -3.7376  -3.7115  -3.6688  -3.4901   4.4532   7.2365   8.3519   8.6052
     8.9582   9.1137   9.9888  10.1544  10.6426  11.8505  14.4470  15.0468
    15.5610  15.6873

          k = 0.0500 0.1500 0.1500 (  4709 PWs)   bands (ev):

   -44.5212 -20.9827 -20.8329 -20.8166  -6.1784  -5.1757  -5.0546  -3.7064
    -3.6993  -3.6819  -3.5573  -3.5351   5.1416   7.8091   7.9054   8.5368
     9.3741   9.5865  10.0877  10.3094  10.5323  10.8238  14.2806  14.7442
    14.8214  16.8505

          k = 0.0500 0.1500 0.2500 (  4708 PWs)   bands (ev):

   -44.5206 -20.9816 -20.8580 -20.8157  -6.0241  -5.1165  -4.9942  -3.7301
    -3.7127  -3.6811  -3.5902  -3.5220   4.7757   7.7853   8.0278   8.4082
     9.2486   9.4266   9.9460  10.2738  10.3583  11.0367  14.7249  14.8189
    15.1205  16.8329

          k = 0.0500 0.1500 0.3500 (  4702 PWs)   bands (ev):

   -44.5201 -20.9805 -20.8830 -20.8147  -5.8672  -5.0584  -4.9249  -3.7560
    -3.7260  -3.6805  -3.6206  -3.5126   4.4796   7.5265   8.1354   8.3795
     9.0031   9.2584   9.9293  10.2318  10.3389  11.3732  14.7339  15.2711
    15.5102  16.0159

          k = 0.0500 0.1500 0.4500 (  4703 PWs)   bands (ev):

   -44.5197 -20.9798 -20.8983 -20.8141  -5.7692  -5.0225  -4.8770  -3.7750
    -3.7373  -3.6800  -3.6313  -3.5113   4.3243   7.2399   8.2061   8.5648
     8.8413   8.9908   9.9590  10.2828  10.3101  11.6446  14.7104  15.4706
    15.5528  15.7860

          k = 0.0500 0.2500 0.2500 (  4701 PWs)   bands (ev):

   -44.5201 -21.0071 -20.8568 -20.8146  -5.8533  -5.0804  -4.9416  -3.7372
    -3.7172  -3.6934  -3.5544  -3.5404   4.4886   7.6265   8.0565   8.2852
     9.0375   9.1413   9.6671  10.2611  10.5605  11.2345  14.7804  15.1833
    15.4278  16.7004

          k = 0.0500 0.2500 0.3500 (  4700 PWs)   bands (ev):

   -44.5195 -21.0059 -20.8817 -20.8137  -5.7212  -5.0413  -4.8599  -3.7493
    -3.7250  -3.6948  -3.5647  -3.5140   4.2529   7.4674   7.9913   8.2436
     8.7617   9.1481   9.5611  10.0758  10.6904  11.2867  15.1424  15.2697
    15.7139  16.3473

          k = 0.0500 0.2500 0.4500 (  4701 PWs)   bands (ev):

   -44.5192 -21.0052 -20.8969 -20.8131  -5.6462  -5.0138  -4.7998  -3.7575
    -3.7358  -3.6958  -3.5540  -3.5101   4.1221   7.2382   8.0031   8.2135
     8.6707   9.1078   9.5520  10.0402  10.7339  11.2748  15.1484  15.5204
    15.9319  16.1329

          k = 0.0500 0.3500 0.3500 (  4702 PWs)   bands (ev):

   -44.5190 -21.0311 -20.8804 -20.8126  -5.6075  -4.9771  -4.7892  -3.7478
    -3.7278  -3.7018  -3.5851  -3.4471   4.0386   7.2653   7.7104   8.2112
     8.6445   9.0126   9.4319  10.0313  10.8327  11.2059  15.2166  15.5991
    15.9222  16.7066

          k = 0.0500 0.3500 0.4500 (  4687 PWs)   bands (ev):

   -44.5186 -21.0303 -20.8956 -20.8120  -5.5736  -4.9347  -4.7150  -3.7494
    -3.7344  -3.7046  -3.5929  -3.4059   3.9282   7.1686   7.5245   8.2798
     8.4426   9.1816   9.3246   9.9152  10.7420  11.2022  15.4816  15.5934
    16.1074  16.7533

          k = 0.0500 0.4500 0.4500 (  4700 PWs)   bands (ev):

   -44.5183 -21.0457 -20.8947 -20.8114  -5.5557  -4.8482  -4.6582  -3.7524
    -3.7338  -3.7084  -3.6161  -3.3442   3.8127   6.9563   7.3964   8.2425
     8.4145   9.0798   9.3941   9.8637  10.4438  11.3906  15.4592  15.8637
    16.2266  17.1625

          k = 0.1500 0.1500 0.1500 (  4716 PWs)   bands (ev):

   -44.5208 -20.9820 -20.8325 -20.8320  -6.0877  -5.1447  -5.0227  -3.7183
    -3.7064  -3.6832  -3.5482  -3.5382   4.9574   7.7432   7.8261   8.6655
     9.2283   9.3996  10.0404  10.3779  10.5895  10.7230  14.5361  14.8006
    14.8368  17.3768

          k = 0.1500 0.1500 0.2500 (  4716 PWs)   bands (ev):

   -44.5203 -20.9810 -20.8573 -20.8312  -5.9416  -5.0942  -4.9652  -3.7382
    -3.7085  -3.6804  -3.5684  -3.5215   4.6785   7.7006   7.7863   8.4393
     9.0150   9.2557  10.0842  10.3498  10.4879  10.9418  14.7586  14.9583
    15.1134  16.7822

          k = 0.1500 0.1500 0.3500 (  4708 PWs)   bands (ev):

   -44.5197 -20.9799 -20.8822 -20.8302  -5.7982  -5.0436  -4.8977  -3.7548
    -3.6992  -3.6760  -3.5971  -3.5123   4.4290   7.5125   7.7530   8.2092
     8.8540   9.3089   9.8285  10.3928  10.4979  11.2326  14.6919  15.3206
    15.4987  16.2292

          k = 0.1500 0.1500 0.4500 (  4710 PWs)   bands (ev):

   -44.5194 -20.9792 -20.8975 -20.8296  -5.7121  -5.0124  -4.8491  -3.7610
    -3.6908  -3.6714  -3.6175  -3.5127   4.2910   7.2470   7.7163   8.2342
     8.7960   9.4086   9.5657  10.4625  10.4859  11.3929  14.6148  15.5628
    15.7688  15.9646

          k = 0.1500 0.2500 0.2500 (  4706 PWs)   bands (ev):

   -44.5197 -21.0065 -20.8562 -20.8301  -5.7661  -5.0643  -4.9406  -3.7408
    -3.7205  -3.6670  -3.5338  -3.5193   4.4793   7.5097   7.6319   8.2515
     8.7134   9.1102   9.9807  10.4171  10.6093  11.0625  14.8164  15.1699
    15.3706  16.5741

          k = 0.1500 0.2500 0.3500 (  4707 PWs)   bands (ev):

   -44.5192 -21.0053 -20.8810 -20.8291  -5.6378  -5.0447  -4.8661  -3.7446
    -3.7070  -3.6575  -3.5372  -3.4958   4.3001   7.4043   7.5595   7.9284
     8.4095   9.1751  10.0638  10.1924  10.7159  11.0583  14.9534  15.2974
    15.6438  16.5353

          k = 0.1500 0.2500 0.4500 (  4699 PWs)   bands (ev):

   -44.5189 -21.0045 -20.8962 -20.8285  -5.5663  -5.0351  -4.8061  -3.7427
    -3.6942  -3.6575  -3.5272  -3.4953   4.1926   7.2320   7.5035   7.7861
     8.3428   9.2781   9.8632  10.2761  10.7349  10.9789  14.9695  15.4942
    15.8704  16.5624

          k = 0.1500 0.3500 0.3500 (  4692 PWs)   bands (ev):

   -44.5187 -21.0305 -20.8797 -20.8281  -5.5080  -5.0037  -4.8331  -3.7400
    -3.6993  -3.6339  -3.5431  -3.4301   4.1523   7.1798   7.4805   7.6807
     8.0535   9.1554   9.9221  10.2574  10.6543  11.0749  15.1036  15.4961
    15.8248  16.8763

          k = 0.1500 0.3500 0.4500 (  4686 PWs)   bands (ev):

   -44.5183 -21.0296 -20.8949 -20.8274  -5.4725  -4.9874  -4.7632  -3.7343
    -3.6749  -3.6412  -3.5469  -3.3890   4.0724   7.1276   7.4063   7.5324
     7.8442   9.2329   9.9753  10.1044  10.3980  11.1725  15.3707  15.4952
    15.9952  17.1064

          k = 0.1500 0.4500 0.4500 (  4673 PWs)   bands (ev):

   -44.5180 -21.0451 -20.8940 -20.8268  -5.4500  -4.9135  -4.7376  -3.7307
    -3.6530  -3.6171  -3.5803  -3.3257   3.9898   6.9091   7.3426   7.5276
     7.6525   9.2394   9.7902  10.0193  10.2472  11.3596  15.4458  15.7191
    16.1006  17.4604

          k = 0.2500 0.2500 0.2500 (  4695 PWs)   bands (ev):

   -44.5192 -21.0053 -20.8554 -20.8548  -5.6358  -5.0375  -4.9260  -3.7259
    -3.7215  -3.6332  -3.5094  -3.4881   4.4352   7.2561   7.3775   8.0896
     8.5119   8.6543  10.2351  10.6464  10.7810  10.7870  14.7979  15.3379
    15.3442  16.6130

          k = 0.2500 0.2500 0.3500 (  4705 PWs)   bands (ev):

   -44.5187 -21.0042 -20.8798 -20.8540  -5.5267  -5.0217  -4.8741  -3.7186
    -3.6995  -3.5929  -3.4916  -3.4670   4.3574   7.1047   7.2099   7.7086
     8.2363   8.6202  10.2119  10.5777  10.7022  10.9562  14.8776  15.3941
    15.6331  16.8389

          k = 0.2500 0.2500 0.4500 (  4695 PWs)   bands (ev):

   -44.5183 -21.0035 -20.8950 -20.8533  -5.4733  -5.0199  -4.8174  -3.7123
    -3.6839  -3.5532  -3.4847  -3.4657   4.2965   6.9935   7.1869   7.3740
     8.1818   8.6619  10.0055  10.5929  10.6466  11.0150  15.0171  15.4768
    15.8577  17.0936

          k = 0.2500 0.3500 0.3500 (  4688 PWs)   bands (ev):

   -44.5181 -21.0293 -20.8786 -20.8529  -5.3601  -5.0281  -4.8942  -3.7079
    -3.6749  -3.5461  -3.4627  -3.3972   4.3474   6.8297   7.0249   7.4804
     7.8776   8.4911   9.7526  10.6519  10.8734  11.0447  15.0546  15.5529
    15.7750  17.2071

          k = 0.2500 0.3500 0.4500 (  4693 PWs)   bands (ev):

   -44.5178 -21.0286 -20.8937 -20.8522  -5.3224  -5.0436  -4.8317  -3.6987
    -3.6516  -3.5177  -3.4520  -3.3566   4.3401   6.8294   6.8759   7.2592
     7.6695   8.5194   9.3877  10.6594  10.8598  11.1699  15.3392  15.5352
    15.9400  17.5615

          k = 0.2500 0.4500 0.4500 (  4695 PWs)   bands (ev):

   -44.5174 -21.0440 -20.8930 -20.8515  -5.2775  -5.0021  -4.8415  -3.6926
    -3.6261  -3.4933  -3.4357  -3.2902   4.3409   6.6341   6.9139   7.0947
     7.4477   8.4951   8.8956  10.6530  10.9072  11.3343  15.5134  15.6885
    16.0353  17.9160

          k = 0.3500 0.3500 0.3500 (  4695 PWs)   bands (ev):

   -44.5176 -21.0282 -20.8776 -20.8774  -5.2641  -5.0110  -4.9294  -3.6741
    -3.6580  -3.4618  -3.3849  -3.3553   4.5492   6.5324   6.6575   7.3607
     7.8542   7.8808   9.0689  10.9429  11.0404  11.2129  15.2444  15.7481
    15.7543  17.6060

          k = 0.3500 0.3500 0.4500 (  4700 PWs)   bands (ev):

   -44.5172 -21.0275 -20.8926 -20.8768  -5.2465  -5.0119  -4.8919  -3.6603
    -3.6420  -3.4016  -3.3544  -3.3173   4.6659   6.4258   6.4908   7.1768
     7.6318   7.8841   8.5475  10.9961  11.1249  11.3400  15.5148  15.6964
    15.9368  18.0038

          k = 0.3500 0.4500 0.4500 (  4702 PWs)   bands (ev):

   -44.5169 -21.0429 -20.8919 -20.8761  -5.1210  -5.0595  -4.9273  -3.6549
    -3.6201  -3.3681  -3.2988  -3.2465   4.8473   6.2430   6.4256   7.0047
     7.4277   7.8074   7.9019  11.0988  11.3096  11.3391  15.7103  15.8272
    16.0089  18.3873

          k = 0.4500 0.4500 0.4500 (  4704 PWs)   bands (ev):

   -44.5166 -21.0422 -20.8913 -20.8912  -5.1316  -4.9870  -4.9699  -3.6336
    -3.6151  -3.2925  -3.2204  -3.2140   5.3951   6.0434   6.1461   6.9276
     7.0289   7.4015   7.5196  11.2980  11.3106  11.5192  15.9093  15.9875
    15.9890  18.7662

          k =-0.0500 0.1500 0.0500 (  4716 PWs)   bands (ev):

   -44.5215 -20.9833 -20.8173 -20.8172  -6.2723  -5.2129  -5.0882  -3.6940
    -3.6857  -3.6820  -3.5618  -3.5231   5.4184   7.8311   7.8437   8.3432
     9.6176   9.6360  10.2192  10.2897  10.7556  10.7614  13.9236  14.7334
    14.7513  16.5167

          k =-0.0500 0.2500 0.0500 (  4713 PWs)   bands (ev):

   -44.5209 -21.0091 -20.8163 -20.8162  -6.0822  -5.1575  -5.0222  -3.7103
    -3.6965  -3.6924  -3.6291  -3.5114   4.9349   7.8493   7.8930   8.2026
     9.3877   9.3897  10.1700  10.4441  10.8145  10.9254  13.9252  15.1656
    15.1914  16.5204

          k =-0.0500 0.3500 0.0500 (  4709 PWs)   bands (ev):

   -44.5204 -21.0346 -20.8152 -20.8152  -5.8781  -5.1077  -4.9481  -3.7531
    -3.7091  -3.6913  -3.6863  -3.5019   4.5675   7.4851   7.9477   8.1300
     9.1791   9.2038  10.1092  10.6734  10.8715  11.4277  13.9256  15.5863
    15.6151  15.9478

          k =-0.0500 0.4500 0.0500 (  4711 PWs)   bands (ev):

   -44.5201 -21.0503 -20.8146 -20.8146  -5.7419  -5.0822  -4.8968  -3.7982
    -3.7162  -3.7085  -3.6905  -3.4973   4.3791   7.1325   7.9763   8.1788
     9.0541   9.1082  10.0696  10.7564  10.9091  11.9840  13.9226  15.1294
    15.8428  15.8792

          k = 0.1500 0.0500 0.1500 (  4709 PWs)   bands (ev):

   -44.5212 -20.9661 -20.8332 -20.8326  -6.1978  -5.1738  -5.0452  -3.7175
    -3.6845  -3.6811  -3.5653  -3.5306   5.1572   7.7951   8.0048   8.5090
     9.3960   9.5354  10.1748  10.2872  10.5494  10.7614  14.5066  14.5792
    14.6034  17.0923

          k =-0.0500 0.2500 0.1500 (  4708 PWs)   bands (ev):

   -44.5206 -21.0083 -20.8318 -20.8156  -5.9935  -5.1243  -4.9993  -3.7275
    -3.7041  -3.6938  -3.5863  -3.5286   4.7546   7.7107   7.9451   8.4040
     9.1151   9.3678  10.0035  10.3509  10.5869  11.0914  14.2777  15.1717
    15.2259  16.8661

          k = 0.2500 0.0500 0.1500 (  4708 PWs)   bands (ev):

   -44.5206 -20.9651 -20.8581 -20.8319  -6.0499  -5.1116  -4.9779  -3.7337
    -3.6980  -3.6813  -3.6005  -3.5243   4.7928   7.7959   8.0653   8.3935
     9.1946   9.3016  10.0622  10.3293  10.5568  10.9085  14.5494  14.9069
    15.0103  16.9832

          k =-0.0500 0.3500 0.1500 (  4702 PWs)   bands (ev):

   -44.5201 -21.0338 -20.8307 -20.8146  -5.7999  -5.0736  -4.9388  -3.7602
    -3.7062  -3.7010  -3.6187  -3.5192   4.4348   7.4059   7.9134   8.2947
     8.9246   9.1959  10.1038  10.3447  10.6486  11.4888  14.2679  15.5798
    15.6206  16.1414

          k = 0.3500 0.0500 0.1500 (  4702 PWs)   bands (ev):

   -44.5201 -20.9641 -20.8830 -20.8309  -5.9030  -5.0362  -4.9115  -3.7545
    -3.7074  -3.6806  -3.6435  -3.5150   4.4955   7.5514   8.0504   8.4197
     8.9516   9.2907   9.7547  10.3568  10.6155  11.3179  14.5263  15.3386
    15.4347  16.0590

          k =-0.0500 0.4500 0.1500 (  4703 PWs)   bands (ev):

   -44.5197 -21.0494 -20.8301 -20.8140  -5.6753  -5.0413  -4.8993  -3.7868
    -3.7131  -3.7015  -3.6299  -3.5176   4.2637   7.0914   7.8810   8.3511
     8.8061   9.0998  10.1995  10.3238  10.6880  11.7966  14.2511  15.5465
    15.8499  15.9035

          k = 0.4500 0.0500 0.1500 (  4703 PWs)   bands (ev):

   -44.5197 -20.9634 -20.8984 -20.8302  -5.8137  -4.9774  -4.8742  -3.7733
    -3.7135  -3.6800  -3.6639  -3.5124   4.3389   7.2471   8.1081   8.5347
     8.8859   9.1165   9.6516  10.3363  10.6552  11.6683  14.4760  15.5102
    15.6199  15.7183

          k = 0.2500 0.0500 0.2500 (  4701 PWs)   bands (ev):

   -44.5201 -20.9641 -20.8573 -20.8565  -5.9286  -5.0538  -4.9060  -3.7345
    -3.7007  -3.6912  -3.5668  -3.5538   4.5285   7.7268   8.0762   8.3200
     8.8378   9.0094  10.0228  10.2724  10.7371  11.0152  14.8177  14.9704
    15.3079  16.7555

          k =-0.0500 0.3500 0.2500 (  4700 PWs)   bands (ev):

   -44.5195 -21.0325 -20.8556 -20.8136  -5.6894  -5.0283  -4.8842  -3.7516
    -3.7189  -3.7019  -3.5650  -3.5158   4.2298   7.3256   7.9811   8.1648
     8.8295   9.0647   9.5908  10.2978  10.6515  11.3883  14.7641  15.6019
    15.7191  16.4544

          k = 0.3500 0.0500 0.2500 (  4700 PWs)   bands (ev):

   -44.5195 -20.9631 -20.8818 -20.8558  -5.8217  -4.9692  -4.8341  -3.7407
    -3.7055  -3.6938  -3.5784  -3.5418   4.2897   7.5471   7.9155   8.2359
     8.6831   9.0089   9.7148  10.3158  10.8157  11.2227  14.8443  15.3438
    15.6189  16.3872

          k =-0.0500 0.4500 0.2500 (  4701 PWs)   bands (ev):

   -44.5192 -21.0480 -20.8549 -20.8130  -5.5972  -4.9747  -4.8527  -3.7670
    -3.7181  -3.7110  -3.5579  -3.5089   4.0835   7.0351   7.9072   8.1632
     8.7495   9.0253   9.6221  10.3343  10.6487  11.4593  14.7500  15.8579
    15.8827  16.3326

          k = 0.4500 0.0500 0.2500 (  4701 PWs)   bands (ev):

   -44.5192 -20.9624 -20.8971 -20.8551  -5.7650  -4.8953  -4.7944  -3.7511
    -3.7113  -3.6961  -3.5671  -3.5458   4.1555   7.2621   7.9586   8.1050
     8.7339   9.1053   9.4203  10.3841  10.7775  11.3758  14.8186  15.6315
    15.8331  16.1546

          k = 0.3500 0.0500 0.3500 (  4702 PWs)   bands (ev):

   -44.5190 -20.9621 -20.8808 -20.8802  -5.7675  -4.8604  -4.7532  -3.7331
    -3.7113  -3.6953  -3.5911  -3.4974   4.0925   7.5381   7.5846   8.1605
     8.3420   9.0673   9.6792  10.0812  10.9791  11.1991  15.2212  15.3914
    15.8245  16.6691

          k =-0.0500 0.4500 0.3500 (  4687 PWs)   bands (ev):

   -44.5186 -21.0466 -20.8795 -20.8120  -5.5607  -4.9003  -4.7473  -3.7544
    -3.7286  -3.7093  -3.5946  -3.4049   3.9128   6.9911   7.6583   8.1213
     8.6659   8.9486   9.4182  10.0359  10.6855  11.2958  15.2050  15.8648
    16.0731  16.9290

          k = 0.4500 0.0500 0.3500 (  4687 PWs)   bands (ev):

   -44.5187 -20.9614 -20.8957 -20.8797  -5.7466  -4.7664  -4.7070  -3.7361
    -3.7111  -3.7037  -3.6008  -3.4618   3.9760   7.2505   7.6201   8.0086
     8.3084   9.2374   9.4669  10.0532  10.8097  11.3751  15.2855  15.6290
    15.9742  16.7554

          k = 0.4500 0.0500 0.4500 (  4700 PWs)   bands (ev):

   -44.5183 -20.9608 -20.8949 -20.8949  -5.7465  -4.6657  -4.6493  -3.7348
    -3.7101  -3.7057  -3.6287  -3.4060   3.8677   7.1394   7.4694   8.0363
     8.0553   9.3811   9.4926   9.8319  10.5922  11.5584  15.6064  15.6394
    16.0577  17.1098

          k =-0.1500 0.2500 0.1500 (  4716 PWs)   bands (ev):

   -44.5203 -21.0076 -20.8314 -20.8310  -5.9048  -5.0970  -4.9850  -3.7366
    -3.7164  -3.6795  -3.5568  -3.5291   4.6545   7.6437   7.7099   8.4554
     9.0656   9.2235   9.8755  10.4400  10.6493  10.9987  14.5020  15.1738
    15.2278  16.8160

          k =-0.1500 0.3500 0.1500 (  4708 PWs)   bands (ev):

   -44.5197 -21.0330 -20.8302 -20.8299  -5.7161  -5.0475  -4.9457  -3.7614
    -3.7119  -3.6666  -3.5827  -3.5201   4.3810   7.4132   7.5302   8.2720
     8.9742   9.1723   9.7590  10.4581  10.7026  11.3420  14.4300  15.5647
    15.5782  16.3016

          k =-0.1500 0.4500 0.1500 (  4710 PWs)   bands (ev):

   -44.5194 -21.0486 -20.8295 -20.8293  -5.5972  -5.0150  -4.9205  -3.7737
    -3.7089  -3.6511  -3.6026  -3.5215   4.2274   7.0983   7.4559   8.3094
     8.9398   9.1104   9.7410  10.4561  10.7352  11.5205  14.3646  15.7877
    15.8162  16.0850

          k = 0.2500 0.1500 0.2500 (  4706 PWs)   bands (ev):

   -44.5197 -20.9799 -20.8566 -20.8558  -5.8170  -5.0491  -4.9135  -3.7356
    -3.7155  -3.6661  -3.5431  -3.5237   4.5055   7.5501   7.6738   8.2474
     8.6376   9.0739  10.2075  10.3453  10.7547  10.8624  14.8737  15.0893
    15.2726  16.5756

          k =-0.1500 0.3500 0.2500 (  4707 PWs)   bands (ev):

   -44.5192 -21.0317 -20.8550 -20.8291  -5.5966  -5.0218  -4.9146  -3.7490
    -3.7154  -3.6444  -3.5351  -3.4997   4.2748   7.2649   7.4838   7.9479
     8.6082   9.1221   9.7567  10.5121  10.7073  11.1311  14.7399  15.5107
    15.6519  16.5785

          k = 0.3500 0.1500 0.2500 (  4707 PWs)   bands (ev):

   -44.5192 -20.9789 -20.8810 -20.8551  -5.7088  -4.9909  -4.8517  -3.7375
    -3.7056  -3.6450  -3.5447  -3.5163   4.3254   7.4246   7.5701   7.8641
     8.4714   9.0877  10.0361  10.3761  10.7674  11.0318  14.8410  15.3343
    15.5793  16.5356

          k =-0.1500 0.4500 0.2500 (  4699 PWs)   bands (ev):

   -44.5189 -21.0473 -20.8543 -20.8284  -5.5011  -4.9772  -4.9028  -3.7522
    -3.7099  -3.6260  -3.5379  -3.4935   4.1505   7.0308   7.3160   7.9186
     8.6071   9.1883   9.5865  10.5640  10.7108  11.1194  14.7178  15.7536
    15.8666  16.6697

          k = 0.4500 0.1500 0.2500 (  4699 PWs)   bands (ev):

   -44.5189 -20.9782 -20.8963 -20.8544  -5.6525  -4.9502  -4.8038  -3.7365
    -3.6967  -3.6274  -3.5451  -3.5207   4.2161   7.2511   7.4309   7.7768
     8.4534   9.1546   9.8370  10.4386  10.6943  11.1131  14.8239  15.5490
    15.8181  16.5637

          k = 0.3500 0.1500 0.3500 (  4692 PWs)   bands (ev):

   -44.5187 -20.9778 -20.8800 -20.8796  -5.6518  -4.9006  -4.8008  -3.7253
    -3.6960  -3.6211  -3.5364  -3.4798   4.2010   7.3630   7.4153   7.6084
     8.0189   9.0859  10.1342  10.2176  10.6049  11.2015  15.0899  15.4011
    15.7538  16.8484

          k =-0.1500 0.4500 0.3500 (  4686 PWs)   bands (ev):

   -44.5183 -21.0459 -20.8789 -20.8274  -5.4554  -4.9393  -4.8178  -3.7381
    -3.6886  -3.6114  -3.5617  -3.3876   4.0552   6.9434   7.4025   7.5523
     8.0302   9.1838   9.7485  10.3249  10.4277  11.1979  15.1517  15.7289
    15.9807  17.1869

          k = 0.4500 0.1500 0.3500 (  4686 PWs)   bands (ev):

   -44.5183 -20.9771 -20.8950 -20.8791  -5.6318  -4.8351  -4.7588  -3.7201
    -3.6801  -3.6082  -3.5477  -3.4459   4.1173   7.2291   7.3547   7.4317
     7.9046   9.1320   9.9912  10.2628  10.3704  11.3542  15.2214  15.5443
    15.9213  17.0995

          k = 0.4500 0.1500 0.4500 (  4673 PWs)   bands (ev):

   -44.5180 -20.9765 -20.8942 -20.8942  -5.6333  -4.7448  -4.7299  -3.7135
    -3.6503  -3.5950  -3.5766  -3.3894   4.0462   7.1257   7.3287   7.3853
     7.5615   9.1643   9.9351  10.1412  10.1652  11.5507  15.5183  15.5746
    16.0174  17.4262

          k =-0.2500 0.3500 0.2500 (  4705 PWs)   bands (ev):

   -44.5187 -21.0305 -20.8541 -20.8537  -5.4608  -5.0127  -4.9390  -3.7269
    -3.7025  -3.5882  -3.4880  -3.4613   4.3278   6.9823   7.2614   7.6427
     8.4643   8.5305  10.0146  10.7588  10.7899  10.8515  14.8065  15.4980
    15.6521  16.8559

          k =-0.2500 0.4500 0.2500 (  4695 PWs)   bands (ev):

   -44.5183 -21.0460 -20.8534 -20.8530  -5.3645  -4.9815  -4.9474  -3.7242
    -3.6909  -3.5372  -3.4955  -3.4478   4.2474   6.8257   7.0849   7.4914
     8.4503   8.5484   9.8018  10.6812  10.8198  10.9116  14.8856  15.6609
    15.8779  17.1576

          k = 0.3500 0.2500 0.3500 (  4688 PWs)   bands (ev):

   -44.5181 -21.0031 -20.8788 -20.8785  -5.4602  -4.9593  -4.8690  -3.6934
    -3.6829  -3.5319  -3.4445  -3.4409   4.3806   6.9201   6.9218   7.5297
     7.9054   8.4024   9.8052  10.6873  10.7240  11.2064  15.0493  15.5179
    15.7432  17.1958

          k =-0.2500 0.4500 0.3500 (  4693 PWs)   bands (ev):

   -44.5178 -21.0448 -20.8778 -20.8522  -5.2866  -4.9945  -4.9093  -3.7025
    -3.6563  -3.5052  -3.4580  -3.3531   4.3176   6.6420   7.0541   7.1579
     7.8217   8.4753   9.3628  10.6383  10.9125  11.1552  15.2236  15.6754
    15.9410  17.5827

          k = 0.4500 0.2500 0.3500 (  4693 PWs)   bands (ev):

   -44.5178 -21.0024 -20.8938 -20.8779  -5.4419  -4.9303  -4.8299  -3.6854
    -3.6628  -3.4804  -3.4446  -3.4089   4.3739   6.7627   6.9113   7.2454
     7.7908   8.3970   9.4313  10.7113  10.7310  11.3438  15.2873  15.5468
    15.9116  17.5532

          k = 0.4500 0.2500 0.4500 (  4695 PWs)   bands (ev):

   -44.5175 -21.0017 -20.8931 -20.8930  -5.4463  -4.8491  -4.8352  -3.6760
    -3.6393  -3.4425  -3.4304  -3.3568   4.3990   6.7351   6.7516   7.1221
     7.5161   8.3685   8.9814  10.7441  10.7477  11.5384  15.5432  15.6174
    15.9948  17.8955

          k =-0.3500 0.4500 0.3500 (  4700 PWs)   bands (ev):

   -44.5172 -21.0436 -20.8769 -20.8767  -5.1450  -5.0359  -4.9638  -3.6695
    -3.6359  -3.4216  -3.3449  -3.3018   4.6304   6.3188   6.6610   7.0656
     7.7138   7.8758   8.5328  11.0348  11.1743  11.2188  15.4641  15.7722
    15.9442  18.0052

          k = 0.4500 0.3500 0.4500 (  4702 PWs)   bands (ev):

   -44.5169 -21.0268 -20.8920 -20.8919  -5.2543  -4.9364  -4.9222  -3.6384
    -3.6355  -3.3273  -3.2953  -3.2938   4.9008   6.2870   6.2896   7.0590
     7.5171   7.6904   7.9334  11.1300  11.1384  11.5264  15.7293  15.8051
    15.9851  18.3828

     the Fermi energy is    11.7581 ev

!    total energy              =    -364.93412899 Ry
     Harris-Foulkes estimate   =    -364.93412899 Ry
     estimated scf accuracy    <          2.3E-09 Ry

     The total energy is the sum of the following terms:

     one-electron contribution =     -73.47313318 Ry
     hartree contribution      =      68.28629396 Ry
     xc contribution           =     -86.10366956 Ry
     ewald contribution        =    -273.64882166 Ry
     smearing contrib. (-TS)   =       0.00520146 Ry

     convergence has been achieved in  13 iterations

     Forces acting on atoms (cartesian axes, Ry/au):

     atom    1 type  1   force =     0.00000000    0.02228586    0.00000000
     atom    2 type  2   force =     0.00000000   -0.07198407    0.00000000
     atom    3 type  3   force =     0.00000000   -0.00217868    0.00000000
     atom    4 type  3   force =     0.00000000    0.05405558    0.00000000
     atom    5 type  3   force =     0.00000000   -0.00217868    0.00000000

     Total force =     0.090073     Total SCF correction =     0.000024


     Computing stress (Cartesian axis) and pressure

          total   stress  (Ry/bohr**3)                   (kbar)     P=  178.45
   0.00107626   0.00000000   0.00000000        158.32      0.00      0.00
   0.00000000   0.00148672   0.00000000          0.00    218.70      0.00
   0.00000000   0.00000000   0.00107626          0.00      0.00    158.32


     BFGS Geometry Optimization

     number of scf cycles    =   1
     number of bfgs steps    =   0

     energy   new            =    -364.9341289921 Ry

     new trust radius        =       0.0719840688 bohr
     new conv_thr            =       0.0000000100 Ry


ATOMIC_POSITIONS (crystal)
Pb       0.000000000   0.000000000   0.000000000    0   0   0
Ti       0.500000000   0.538139169   0.500000000
O        0.500000000   0.499701550   0.000000000
O        0.500000000   0.007404874   0.500000000
O        0.000000000   0.499701550   0.500000000



     Writing output data file PbTiO3.save/
     NEW-OLD atomic charge density approx. for the potential

     Check: negative core charge=   -0.000006

     total cpu time spent up to now is      472.4 secs

     Self-consistent Calculation

     iteration #  1     ecut=    80.00 Ry     beta= 0.70
     Davidson diagonalization with overlap
     ethr =  1.00E-06,  avg # of iterations =  5.5

     total cpu time spent up to now is      538.4 secs

     total energy              =    -364.93816121 Ry
     Harris-Foulkes estimate   =    -364.94046489 Ry
     estimated scf accuracy    <       0.00329979 Ry

     iteration #  2     ecut=    80.00 Ry     beta= 0.70
     Davidson diagonalization with overlap
     ethr =  7.50E-06,  avg # of iterations =  4.3

     total cpu time spent up to now is      580.0 secs

     total energy              =    -364.93780829 Ry
     Harris-Foulkes estimate   =    -364.94053442 Ry
     estimated scf accuracy    <       0.00610172 Ry

     iteration #  3     ecut=    80.00 Ry     beta= 0.70
     Davidson diagonalization with overlap
     ethr =  7.50E-06,  avg # of iterations =  3.7

     total cpu time spent up to now is      617.7 secs

     total energy              =    -364.93919335 Ry
     Harris-Foulkes estimate   =    -364.93955165 Ry
     estimated scf accuracy    <       0.00100919 Ry

     iteration #  4     ecut=    80.00 Ry     beta= 0.70
     Davidson diagonalization with overlap
     ethr =  2.29E-06,  avg # of iterations =  3.0

     total cpu time spent up to now is      648.2 secs

     total energy              =    -364.93935119 Ry
     Harris-Foulkes estimate   =    -364.93935737 Ry
     estimated scf accuracy    <       0.00001296 Ry

     iteration #  5     ecut=    80.00 Ry     beta= 0.70
     Davidson diagonalization with overlap
     ethr =  2.95E-08,  avg # of iterations =  3.5

     total cpu time spent up to now is      687.0 secs

     total energy              =    -364.93935811 Ry
     Harris-Foulkes estimate   =    -364.93935826 Ry
     estimated scf accuracy    <       0.00000059 Ry

     iteration #  6     ecut=    80.00 Ry     beta= 0.70
     Davidson diagonalization with overlap
     ethr =  1.34E-09,  avg # of iterations =  3.0

     total cpu time spent up to now is      721.7 secs

     total energy              =    -364.93935825 Ry
     Harris-Foulkes estimate   =    -364.93935829 Ry
     estimated scf accuracy    <       0.00000009 Ry

     iteration #  7     ecut=    80.00 Ry     beta= 0.70
     Davidson diagonalization with overlap
     ethr =  1.99E-10,  avg # of iterations =  2.6

     total cpu time spent up to now is      755.4 secs

     End of self-consistent calculation

          k = 0.0500 0.0500 0.0500 (  4713 PWs)   bands (ev):

   -44.6392 -20.9939 -20.9383 -20.9382  -6.3884  -5.2258  -5.1650  -3.6691
    -3.6585  -3.6580  -3.5145  -3.5095   5.8555   7.8018   7.8278   8.0453
    10.0062  10.0270  10.2356  10.5641  10.7241  10.7976  13.8331  14.1383
    14.1397  16.3854

          k = 0.0500 0.0500 0.1500 (  4716 PWs)   bands (ev):

   -44.6388 -20.9934 -20.9539 -20.9377  -6.2895  -5.1876  -5.1244  -3.6803
    -3.6694  -3.6574  -3.5521  -3.5023   5.4533   7.8581   7.9003   8.3130
     9.7855   9.8884  10.2291  10.4275  10.5607  10.7881  14.1384  14.2010
    14.3385  16.4950

          k = 0.0500 0.0500 0.2500 (  4713 PWs)   bands (ev):

   -44.6383 -20.9925 -20.9788 -20.9367  -6.1247  -5.1223  -5.0572  -3.7006
    -3.6863  -3.6562  -3.6165  -3.4904   4.9938   7.8969   8.0243   8.2555
     9.5719   9.6333  10.1695  10.3624  10.5696  10.8716  14.1420  14.7245
    14.7754  16.4906

          k = 0.0500 0.0500 0.3500 (  4709 PWs)   bands (ev):

   -44.6378 -21.0040 -20.9913 -20.9358  -5.9533  -5.0505  -4.9895  -3.7332
    -3.7020  -3.6746  -3.6549  -3.4807   4.6545   7.5186   8.1906   8.3442
     9.2490   9.3412  10.0964  10.3645  10.6932  11.3537  14.1421  15.2072
    15.2492  15.8758

          k = 0.0500 0.0500 0.4500 (  4711 PWs)   bands (ev):

   -44.6374 -21.0192 -20.9908 -20.9352  -5.8434  -5.0007  -4.9488  -3.7698
    -3.7121  -3.6972  -3.6542  -3.4759   4.4863   7.1753   8.3365   8.5637
     8.9781   9.0663  10.0500  10.3952  10.7423  11.8949  14.1361  15.0739
    15.4958  15.5519

          k = 0.0500 0.1500 0.1500 (  4709 PWs)   bands (ev):

   -44.6385 -21.0092 -20.9532 -20.9371  -6.1842  -5.1508  -5.0934  -3.6868
    -3.6783  -3.6673  -3.5436  -3.5200   5.1702   7.8067   7.9208   8.5247
     9.5004   9.7169  10.1625  10.3551  10.5343  10.8188  14.1967  14.4589
    14.6077  16.6959

          k = 0.0500 0.1500 0.2500 (  4708 PWs)   bands (ev):

   -44.6380 -21.0082 -20.9782 -20.9361  -6.0249  -5.0969  -5.0282  -3.7111
    -3.6902  -3.6666  -3.5757  -3.5086   4.8044   7.7753   8.0361   8.3967
     9.2854   9.5002  10.0025  10.3646  10.4118  11.0423  14.4519  14.7285
    14.9686  16.7502

          k = 0.0500 0.1500 0.3500 (  4702 PWs)   bands (ev):

   -44.6374 -21.0074 -21.0028 -20.9352  -5.8629  -5.0434  -4.9543  -3.7381
    -3.7015  -3.6659  -3.6079  -3.4988   4.5098   7.4946   8.1185   8.3711
     9.0068   9.2813   9.9928  10.3652  10.4070  11.3995  14.4472  15.2052
    15.3820  16.0499

          k = 0.0500 0.1500 0.4500 (  4703 PWs)   bands (ev):

   -44.6371 -21.0184 -21.0064 -20.9346  -5.7618  -5.0085  -4.9051  -3.7584
    -3.7112  -3.6654  -3.6198  -3.4969   4.3569   7.1820   8.1840   8.5521
     8.8366   9.0006  10.0527  10.3672  10.4209  11.6857  14.4311  15.4790
    15.5146  15.6544

          k = 0.0500 0.2500 0.2500 (  4701 PWs)   bands (ev):

   -44.6374 -21.0335 -20.9771 -20.9351  -5.8667  -5.0547  -4.9699  -3.7183
    -3.6931  -3.6783  -3.5385  -3.5298   4.5238   7.6593   8.0846   8.2611
     9.0705   9.1694   9.7234  10.2711  10.6349  11.2118  14.7065  14.9385
    15.2877  16.6959

          k = 0.0500 0.2500 0.3500 (  4700 PWs)   bands (ev):

   -44.6369 -21.0323 -21.0018 -20.9342  -5.7336  -5.0119  -4.8859  -3.7297
    -3.7006  -3.6801  -3.5500  -3.5047   4.2854   7.4634   7.9716   8.2482
     8.7972   9.1463   9.5797  10.1512  10.7718  11.2859  14.9116  15.1961
    15.5994  16.3593

          k = 0.0500 0.2500 0.4500 (  4701 PWs)   bands (ev):

   -44.6366 -21.0316 -21.0170 -20.9336  -5.6596  -4.9759  -4.8284  -3.7396
    -3.7097  -3.6814  -3.5393  -3.5017   4.1537   7.1910   8.0013   8.1922
     8.7521   9.0747   9.5458  10.1469  10.8019  11.3071  14.9050  15.4717
    15.8208  16.1500

          k = 0.0500 0.3500 0.3500 (  4702 PWs)   bands (ev):

   -44.6364 -21.0573 -21.0005 -20.9331  -5.6381  -4.9300  -4.8141  -3.7268
    -3.7037  -3.6863  -3.5694  -3.4408   4.0742   7.3334   7.6297   8.2578
     8.6329   9.0273   9.4498  10.0329  10.9569  11.1623  15.1644  15.3824
    15.8246  16.6865

          k = 0.0500 0.3500 0.4500 (  4687 PWs)   bands (ev):

   -44.6360 -21.0565 -21.0156 -20.9325  -5.6054  -4.8752  -4.7451  -3.7295
    -3.7083  -3.6905  -3.5776  -3.4006   3.9592   7.1697   7.4999   8.2575
     8.5058   9.1672   9.3164   9.9503  10.8130  11.2349  15.3682  15.4522
    16.0089  16.7661

          k = 0.0500 0.4500 0.4500 (  4700 PWs)   bands (ev):

   -44.6357 -21.0718 -21.0148 -20.9319  -5.5940  -4.7794  -4.6906  -3.7309
    -3.7073  -3.6947  -3.6006  -3.3406   3.8433   7.0117   7.3281   8.2854
     8.3776   9.1353   9.3543   9.8556  10.5121  11.4321  15.4326  15.6572
    16.1424  17.1578

          k = 0.1500 0.1500 0.1500 (  4716 PWs)   bands (ev):

   -44.6382 -21.0086 -20.9528 -20.9523  -6.0894  -5.1218  -5.0614  -3.6958
    -3.6905  -3.6671  -3.5306  -3.5260   4.9836   7.7721   7.8092   8.6721
     9.3335   9.4329  10.2123  10.4082  10.5351  10.7246  14.4577  14.5957
    14.6169  17.2532

          k = 0.1500 0.1500 0.2500 (  4716 PWs)   bands (ev):

   -44.6376 -21.0076 -20.9775 -20.9516  -5.9358  -5.0780  -5.0009  -3.7191
    -3.6906  -3.6635  -3.5510  -3.5081   4.7027   7.7117   7.7851   8.4487
     9.0732   9.2652  10.1472  10.4021  10.5238  10.9381  14.5632  14.8717
    14.9663  16.7972

          k = 0.1500 0.1500 0.3500 (  4708 PWs)   bands (ev):

   -44.6371 -21.0068 -21.0020 -20.9506  -5.7838  -5.0362  -4.9290  -3.7374
    -3.6819  -3.6569  -3.5799  -3.4984   4.4535   7.4845   7.7551   8.2214
     8.8784   9.3359   9.8269  10.4818  10.5457  11.2467  14.4971  15.2588
    15.3739  16.2364

          k = 0.1500 0.1500 0.4500 (  4710 PWs)   bands (ev):

   -44.6368 -21.0176 -21.0058 -20.9499  -5.6919  -5.0107  -4.8777  -3.7447
    -3.6754  -3.6479  -3.6018  -3.4985   4.3171   7.1896   7.7150   8.2644
     8.7998   9.4048   9.6093  10.5316  10.5428  11.4152  14.4296  15.5126
    15.6437  15.9704

          k = 0.1500 0.2500 0.2500 (  4706 PWs)   bands (ev):

   -44.6371 -21.0328 -20.9764 -20.9505  -5.7733  -5.0388  -4.9724  -3.7213
    -3.7003  -3.6499  -3.5159  -3.5092   4.5117   7.5569   7.6502   8.2489
     8.7096   9.0851  10.1442  10.3658  10.6737  11.0241  14.7544  14.9864
    15.2271  16.5607

          k = 0.1500 0.2500 0.3500 (  4707 PWs)   bands (ev):

   -44.6366 -21.0317 -21.0011 -20.9495  -5.6405  -5.0215  -4.8941  -3.7256
    -3.6890  -3.6362  -3.5211  -3.4867   4.3297   7.4094   7.5793   7.9025
     8.4387   9.1424  10.0475  10.2989  10.7982  11.0342  14.8086  15.2151
    15.5201  16.5171

          k = 0.1500 0.2500 0.4500 (  4699 PWs)   bands (ev):

   -44.6362 -21.0309 -21.0162 -20.9489  -5.5676  -5.0088  -4.8345  -3.7247
    -3.6788  -3.6300  -3.5138  -3.4867   4.2213   7.1899   7.4885   7.8138
     8.3844   9.2459   9.8240  10.3815  10.8173  10.9805  14.7921  15.4508
    15.7493  16.5683

          k = 0.1500 0.3500 0.3500 (  4692 PWs)   bands (ev):

   -44.6360 -21.0566 -20.9998 -20.9485  -5.5330  -4.9601  -4.8574  -3.7190
    -3.6790  -3.6152  -3.5266  -3.4239   4.1872   7.2607   7.4800   7.6332
     8.0250   9.1143  10.0458  10.2202  10.6858  11.1013  15.0472  15.3343
    15.7143  16.8440

          k = 0.1500 0.3500 0.4500 (  4686 PWs)   bands (ev):

   -44.6357 -21.0558 -21.0149 -20.9479  -5.4988  -4.9336  -4.7914  -3.7141
    -3.6588  -3.6140  -3.5340  -3.3839   4.1029   7.1537   7.3938   7.4962
     7.8627   9.1810   9.9759  10.1871  10.4171  11.2267  15.2304  15.4212
    15.8906  17.1060

          k = 0.1500 0.4500 0.4500 (  4673 PWs)   bands (ev):

   -44.6354 -21.0711 -21.0141 -20.9472  -5.4855  -4.8486  -4.7663  -3.7093
    -3.6306  -3.5962  -3.5672  -3.3223   4.0210   6.9873   7.2902   7.5201
     7.6114   9.1882   9.8553  10.0918  10.2086  11.4189  15.3976  15.5518
    16.0118  17.4554

          k = 0.2500 0.2500 0.2500 (  4695 PWs)   bands (ev):

   -44.6366 -21.0317 -20.9756 -20.9750  -5.6308  -5.0166  -4.9609  -3.7061
    -3.7039  -3.6156  -3.4892  -3.4789   4.4626   7.3174   7.3793   8.1309
     8.4800   8.5749  10.4153  10.6391  10.7276  10.7983  14.7489  15.1945
    15.2083  16.5796

          k = 0.2500 0.2500 0.3500 (  4705 PWs)   bands (ev):

   -44.6360 -21.0306 -20.9999 -20.9742  -5.5081  -5.0150  -4.9036  -3.7007
    -3.6821  -3.5735  -3.4705  -3.4584   4.3803   7.1247   7.2488   7.6871
     8.2369   8.5517  10.2683  10.6269  10.7238  10.9474  14.8014  15.2903
    15.5131  16.8095

          k = 0.2500 0.2500 0.4500 (  4695 PWs)   bands (ev):

   -44.6357 -21.0299 -21.0151 -20.9736  -5.4469  -5.0196  -4.8449  -3.6951
    -3.6675  -3.5289  -3.4702  -3.4539   4.3174   6.9965   7.1847   7.3814
     8.1970   8.5988  10.0124  10.6542  10.6905  11.0106  14.8932  15.4240
    15.7422  17.0943

          k = 0.2500 0.3500 0.3500 (  4688 PWs)   bands (ev):

   -44.6355 -21.0555 -20.9987 -20.9732  -5.3695  -4.9949  -4.9189  -3.6866
    -3.6580  -3.5238  -3.4464  -3.3913   4.3797   6.8979   7.0204   7.4855
     7.8085   8.4204   9.8063  10.7187  10.8387  11.1010  14.9946  15.4247
    15.6573  17.1767

          k = 0.2500 0.3500 0.4500 (  4693 PWs)   bands (ev):

   -44.6352 -21.0548 -21.0138 -20.9725  -5.3307  -5.0064  -4.8576  -3.6783
    -3.6365  -3.4862  -3.4419  -3.3513   4.3682   6.8287   6.9379   7.2096
     7.6511   8.4434   9.4167  10.7467  10.8256  11.2282  15.2299  15.4560
    15.8311  17.5531

          k = 0.2500 0.4500 0.4500 (  4695 PWs)   bands (ev):

   -44.6349 -21.0701 -21.0131 -20.9719  -5.3074  -4.9421  -4.8668  -3.6712
    -3.6106  -3.4579  -3.4290  -3.2874   4.3734   6.7295   6.8758   7.0684
     7.3811   8.4231   8.9337  10.7423  10.8663  11.4036  15.4456  15.5555
    15.9385  17.9127

          k = 0.3500 0.3500 0.3500 (  4695 PWs)   bands (ev):

   -44.6350 -21.0544 -20.9978 -20.9975  -5.2423  -5.0011  -4.9568  -3.6516
    -3.6439  -3.4374  -3.3674  -3.3509   4.5753   6.5932   6.6522   7.3794
     7.7844   7.7889   9.0928  11.0210  11.0891  11.1902  15.1786  15.6338
    15.6436  17.5858

          k = 0.3500 0.3500 0.4500 (  4700 PWs)   bands (ev):

   -44.6346 -21.0537 -21.0127 -20.9970  -5.2075  -5.0191  -4.9160  -3.6410
    -3.6256  -3.3730  -3.3438  -3.3094   4.6851   6.4340   6.5453   7.1497
     7.5907   7.7998   8.5596  11.0724  11.1765  11.3141  15.4249  15.6076
    15.8323  17.9997

          k = 0.3500 0.4500 0.4500 (  4702 PWs)   bands (ev):

   -44.6343 -21.0690 -21.0120 -20.9963  -5.1297  -5.0181  -4.9504  -3.6329
    -3.6057  -3.3287  -3.2945  -3.2438   4.8808   6.3026   6.3936   6.9958
     7.3692   7.7335   7.9120  11.1818  11.2915  11.3909  15.6320  15.7178
    15.9069  18.3904

          k = 0.4500 0.4500 0.4500 (  4704 PWs)   bands (ev):

   -44.6340 -21.0683 -21.0114 -21.0113  -5.0761  -5.0073  -4.9922  -3.6107
    -3.6019  -3.2509  -3.2171  -3.2115   5.4226   6.0919   6.1357   6.9060
     7.0418   7.3620   7.4150  11.3746  11.3850  11.4795  15.8237  15.8874
    15.8911  18.7782

          k =-0.0500 0.1500 0.0500 (  4716 PWs)   bands (ev):

   -44.6388 -21.0098 -20.9377 -20.9376  -6.2810  -5.1859  -5.1287  -3.6712
    -3.6689  -3.6672  -3.5494  -3.5059   5.4472   7.8512   7.8568   8.3222
     9.7787   9.8142  10.2357  10.3851  10.7417  10.7578  13.8341  14.4498
    14.4608  16.3865

          k =-0.0500 0.2500 0.0500 (  4713 PWs)   bands (ev):

   -44.6383 -21.0353 -20.9367 -20.9367  -6.1006  -5.1218  -5.0653  -3.6949
    -3.6822  -3.6669  -3.6152  -3.4938   4.9773   7.8765   7.9489   8.2076
     9.4903   9.5190  10.1854  10.4601  10.7831  10.9167  13.8357  14.9233
    14.9415  16.3884

          k =-0.0500 0.3500 0.0500 (  4709 PWs)   bands (ev):

   -44.6378 -21.0606 -20.9357 -20.9357  -5.9103  -5.0594  -4.9948  -3.7341
    -3.6951  -3.6724  -3.6656  -3.4838   4.6273   7.4779   8.0473   8.2056
     9.2408   9.2419  10.1218  10.6463  10.8345  11.4179  13.8361  15.3743
    15.3948  15.9378

          k =-0.0500 0.4500 0.0500 (  4711 PWs)   bands (ev):

   -44.6374 -21.0762 -20.9351 -20.9351  -5.7863  -5.0226  -4.9465  -3.7757
    -3.7024  -3.6952  -3.6648  -3.4788   4.4525   7.1069   8.1133   8.3095
     9.0535   9.0959  10.0805  10.7215  10.8703  11.9651  13.8332  15.1243
    15.6467  15.6702

          k = 0.1500 0.0500 0.1500 (  4709 PWs)   bands (ev):

   -44.6385 -20.9928 -20.9535 -20.9530  -6.1941  -5.1562  -5.0831  -3.6938
    -3.6700  -3.6664  -3.5476  -3.5178   5.1780   7.8028   7.9626   8.5180
     9.5809   9.5862  10.2763  10.3458  10.4912  10.8257  14.3087  14.3596
    14.4865  16.8034

          k =-0.0500 0.2500 0.1500 (  4708 PWs)   bands (ev):

   -44.6380 -21.0346 -20.9522 -20.9361  -6.0097  -5.0913  -5.0383  -3.7103
    -3.6824  -3.6758  -3.5742  -3.5115   4.7939   7.7434   7.9908   8.3870
     9.2010   9.4714  10.0149  10.3967  10.5608  11.0728  14.1956  14.9321
    15.0306  16.7411

          k = 0.2500 0.0500 0.1500 (  4708 PWs)   bands (ev):

   -44.6380 -20.9919 -20.9781 -20.9522  -6.0382  -5.1009  -5.0142  -3.7131
    -3.6825  -3.6667  -3.5810  -3.5098   4.8124   7.7845   8.0476   8.4001
     9.2418   9.4328  10.0509  10.3974  10.5516  10.9840  14.3289  14.7650
    14.9251  16.8565

          k =-0.0500 0.3500 0.1500 (  4702 PWs)   bands (ev):

   -44.6374 -21.0599 -20.9511 -20.9351  -5.8305  -5.0282  -4.9790  -3.7402
    -3.6913  -3.6763  -3.6073  -3.5016   4.4882   7.4325   7.9902   8.3140
     8.9707   9.2503  10.0786  10.3847  10.6098  11.4649  14.1871  15.3819
    15.4398  16.1244

          k = 0.3500 0.0500 0.1500 (  4702 PWs)   bands (ev):

   -44.6374 -21.0032 -20.9907 -20.9512  -5.8814  -5.0357  -4.9446  -3.7373
    -3.6921  -3.6660  -3.6195  -3.5000   4.5169   7.5062   8.0780   8.3991
     8.9594   9.3335   9.8585  10.3993  10.6208  11.3742  14.3177  15.2293
    15.3527  16.0819

          k =-0.0500 0.4500 0.1500 (  4703 PWs)   bands (ev):

   -44.6371 -21.0754 -20.9505 -20.9345  -5.7180  -4.9818  -4.9441  -3.7641
    -3.6994  -3.6759  -3.6194  -3.4994   4.3281   7.0956   7.9873   8.4237
     8.8233   9.0926  10.1679  10.3593  10.6450  11.7701  14.1714  15.5260
    15.6571  15.7443

          k = 0.4500 0.0500 0.1500 (  4703 PWs)   bands (ev):

   -44.6371 -21.0184 -20.9902 -20.9506  -5.7851  -4.9864  -4.9033  -3.7576
    -3.6995  -3.6654  -3.6359  -3.4974   4.3629   7.1852   8.1410   8.5396
     8.8406   9.0812   9.8632  10.3762  10.6618  11.6989  14.2945  15.5095
    15.5396  15.6201

          k = 0.2500 0.0500 0.2500 (  4701 PWs)   bands (ev):

   -44.6374 -20.9911 -20.9773 -20.9767  -5.9048  -5.0539  -4.9420  -3.7169
    -3.6859  -3.6762  -3.5430  -3.5384   4.5425   7.7132   8.0768   8.3075
     9.0052   9.0413   9.9175  10.3102  10.7234  11.1038  14.6901  14.8187
    15.2393  16.7538

          k =-0.0500 0.3500 0.2500 (  4700 PWs)   bands (ev):

   -44.6369 -21.0586 -20.9759 -20.9341  -5.7191  -4.9915  -4.9085  -3.7310
    -3.6954  -3.6857  -3.5500  -3.5056   4.2738   7.3847   7.9696   8.1907
     8.8423   9.1036   9.5934  10.2717  10.7357  11.3512  14.6968  15.3841
    15.6016  16.4270

          k = 0.3500 0.0500 0.2500 (  4700 PWs)   bands (ev):

   -44.6369 -21.0020 -20.9898 -20.9759  -5.7849  -4.9825  -4.8682  -3.7256
    -3.6911  -3.6793  -3.5561  -3.5193   4.3016   7.5003   7.9383   8.2549
     8.7733   9.0690   9.6506  10.2980  10.8223  11.2601  14.7284  15.2297
    15.5608  16.3951

          k =-0.0500 0.4500 0.2500 (  4701 PWs)   bands (ev):

   -44.6366 -21.0740 -20.9752 -20.9335  -5.6379  -4.9228  -4.8822  -3.7443
    -3.6983  -3.6915  -3.5408  -3.5014   4.1343   7.0782   7.9353   8.1712
     8.7962   9.0324   9.5912  10.2983  10.7344  11.4209  14.6845  15.6596
    15.7839  16.2794

          k = 0.4500 0.0500 0.2500 (  4701 PWs)   bands (ev):

   -44.6366 -21.0171 -20.9893 -20.9752  -5.7205  -4.9189  -4.8249  -3.7365
    -3.6977  -3.6814  -3.5441  -3.5212   4.1674   7.2011   7.9953   8.1336
     8.8189   9.0820   9.4467  10.3408  10.8004  11.3695  14.7176  15.5282
    15.7734  16.1723

          k = 0.3500 0.0500 0.3500 (  4702 PWs)   bands (ev):

   -44.6364 -21.0011 -21.0003 -20.9885  -5.7184  -4.8850  -4.7875  -3.7198
    -3.6966  -3.6820  -3.5724  -3.4657   4.0978   7.5142   7.5265   8.2503
     8.5043   9.0471   9.5815  10.0614  11.0054  11.1709  15.1508  15.2715
    15.7840  16.6757

          k =-0.0500 0.4500 0.3500 (  4687 PWs)   bands (ev):

   -44.6360 -21.0726 -20.9997 -20.9325  -5.5999  -4.8392  -4.7778  -3.7320
    -3.7034  -3.6948  -3.5783  -3.4002   3.9510   7.0572   7.5842   8.1741
     8.6231   9.0188   9.3992  10.0089  10.7736  11.2916  15.1592  15.6585
    15.9854  16.8835

          k = 0.4500 0.0500 0.3500 (  4687 PWs)   bands (ev):

   -44.6360 -21.0157 -21.0000 -20.9880  -5.6923  -4.7975  -4.7394  -3.7231
    -3.6971  -3.6896  -3.5814  -3.4284   3.9785   7.2010   7.5599   8.1391
     8.4700   9.1891   9.4014  10.0105  10.8112  11.3395  15.2024  15.5273
    15.9453  16.7833

          k = 0.4500 0.0500 0.4500 (  4700 PWs)   bands (ev):

   -44.6357 -21.0150 -21.0149 -20.9875  -5.6890  -4.6985  -4.6828  -3.7225
    -3.6964  -3.6926  -3.6066  -3.3713   3.8654   7.1039   7.3707   8.2007
     8.2279   9.3138   9.4067   9.8069  10.5618  11.5198  15.5144  15.5354
    16.0582  17.1335

          k =-0.1500 0.2500 0.1500 (  4716 PWs)   bands (ev):

   -44.6376 -21.0339 -20.9517 -20.9514  -5.9175  -5.0632  -5.0251  -3.7185
    -3.6940  -3.6635  -3.5456  -3.5114   4.6910   7.7061   7.7223   8.4444
     9.0985   9.2589   9.9956  10.4807  10.6029  10.9699  14.4297  14.9906
    15.0298  16.8160

          k =-0.1500 0.3500 0.1500 (  4708 PWs)   bands (ev):

   -44.6371 -21.0591 -20.9507 -20.9504  -5.7442  -4.9985  -4.9874  -3.7406
    -3.6881  -3.6526  -3.5727  -3.5017   4.4304   7.4350   7.6211   8.2389
     8.9570   9.2623   9.7868  10.5036  10.6551  11.3105  14.3597  15.4006
    15.4094  16.2791

          k =-0.1500 0.4500 0.1500 (  4710 PWs)   bands (ev):

   -44.6368 -21.0746 -20.9500 -20.9497  -5.6380  -4.9634  -4.9534  -3.7509
    -3.6843  -3.6389  -3.5936  -3.5023   4.2868   7.1027   7.5608   8.2874
     8.8988   9.2310   9.7146  10.5032  10.6859  11.4913  14.2925  15.6431
    15.6624  16.0440

          k = 0.2500 0.1500 0.2500 (  4706 PWs)   bands (ev):

   -44.6371 -21.0066 -20.9767 -20.9761  -5.7987  -5.0428  -4.9491  -3.7187
    -3.6982  -3.6491  -3.5210  -3.5112   4.5241   7.5755   7.6762   8.2520
     8.6819   9.0601  10.2927  10.3201  10.7454  10.9059  14.7705  14.9401
    15.1827  16.5642

          k =-0.1500 0.3500 0.2500 (  4707 PWs)   bands (ev):

   -44.6366 -21.0579 -20.9753 -20.9495  -5.6218  -4.9886  -4.9359  -3.7278
    -3.6932  -3.6298  -3.5194  -3.4891   4.3171   7.3393   7.5213   7.9066
     8.5639   9.1014   9.8885  10.4714  10.7733  11.0900  14.6849  15.3424
    15.5213  16.5446

          k = 0.3500 0.1500 0.2500 (  4707 PWs)   bands (ev):

   -44.6366 -21.0058 -21.0008 -20.9753  -5.6767  -4.9985  -4.8842  -3.7221
    -3.6886  -3.6295  -3.5235  -3.4983   4.3409   7.4213   7.5852   7.8710
     8.4931   9.0878  10.0304  10.4098  10.8087  11.0221  14.7350  15.2394
    15.4884  16.5219

          k =-0.1500 0.4500 0.2500 (  4699 PWs)   bands (ev):

   -44.6362 -21.0733 -20.9746 -20.9488  -5.5391  -4.9481  -4.9070  -3.7294
    -3.6864  -3.6147  -3.5182  -3.4862   4.2003   7.0802   7.3716   7.8788
     8.5478   9.1737   9.6992  10.5312  10.7644  11.0891  14.6546  15.5948
    15.7406  16.6409

          k = 0.4500 0.1500 0.2500 (  4699 PWs)   bands (ev):

   -44.6362 -21.0163 -21.0048 -20.9746  -5.6121  -4.9671  -4.8330  -3.7217
    -3.6801  -3.6151  -3.5195  -3.5024   4.2309   7.1976   7.4578   7.8092
     8.4656   9.1719   9.8150  10.4689  10.7513  11.0819  14.7081  15.4852
    15.7195  16.5749

          k = 0.3500 0.1500 0.3500 (  4692 PWs)   bands (ev):

   -44.6360 -21.0050 -20.9997 -20.9996  -5.6046  -4.9211  -4.8329  -3.7120
    -3.6778  -3.6086  -3.5234  -3.4484   4.2087   7.3756   7.4319   7.6109
     8.0242   9.0764  10.1497  10.2118  10.6329  11.1733  15.0317  15.2837
    15.6827  16.8336

          k =-0.1500 0.4500 0.3500 (  4686 PWs)   bands (ev):

   -44.6357 -21.0720 -20.9991 -20.9478  -5.4917  -4.8833  -4.8421  -3.7159
    -3.6655  -3.5993  -3.5411  -3.3833   4.0938   7.0295   7.4177   7.4952
     7.9716   9.1451   9.8656  10.3079  10.4256  11.2408  15.0982  15.5627
    15.8794  17.1581

          k = 0.4500 0.1500 0.3500 (  4686 PWs)   bands (ev):

   -44.6357 -21.0150 -21.0040 -20.9989  -5.5784  -4.8622  -4.7884  -3.7073
    -3.6615  -3.5978  -3.5344  -3.4120   4.1212   7.1897   7.4015   7.4502
     7.9136   9.1241   9.9804  10.2717  10.3851  11.3202  15.1349  15.4619
    15.8541  17.1105

          k = 0.4500 0.1500 0.4500 (  4673 PWs)   bands (ev):

   -44.6354 -21.0143 -21.0142 -21.0030  -5.5759  -4.7737  -4.7595  -3.7011
    -3.6305  -3.5855  -3.5645  -3.3538   4.0439   7.0928   7.3234   7.4694
     7.5597   9.1503   9.9114  10.1439  10.1708  11.5121  15.4330  15.4761
    15.9745  17.4414

          k =-0.2500 0.3500 0.2500 (  4705 PWs)   bands (ev):

   -44.6360 -21.0567 -20.9744 -20.9740  -5.4774  -4.9733  -4.9689  -3.7051
    -3.6831  -3.5716  -3.4691  -3.4548   4.3660   7.0567   7.2753   7.6334
     8.4001   8.4692  10.1593  10.7356  10.7573  10.9024  14.7593  15.3584
    15.5162  16.8185

          k =-0.2500 0.4500 0.2500 (  4695 PWs)   bands (ev):

   -44.6357 -21.0721 -20.9737 -20.9734  -5.3982  -4.9812  -4.9201  -3.7012
    -3.6703  -3.5216  -3.4769  -3.4429   4.2935   6.9031   7.1034   7.4517
     8.3750   8.4993   9.9230  10.6800  10.7897  10.9639  14.8244  15.5264
    15.7469  17.1335

          k = 0.3500 0.2500 0.3500 (  4688 PWs)   bands (ev):

   -44.6355 -21.0296 -20.9989 -20.9986  -5.4189  -4.9710  -4.8985  -3.6799
    -3.6617  -3.5173  -3.4370  -3.4130   4.3947   6.9382   6.9807   7.5208
     7.8306   8.3659   9.8261  10.7472  10.7587  11.1786  14.9907  15.4018
    15.6452  17.1730

          k =-0.2500 0.4500 0.3500 (  4693 PWs)   bands (ev):

   -44.6352 -21.0708 -20.9980 -20.9725  -5.3172  -4.9496  -4.9230  -3.6803
    -3.6384  -3.4787  -3.4463  -3.3495   4.3567   6.7221   7.0411   7.1388
     7.7467   8.4092   9.4132  10.7131  10.8713  11.2222  15.1626  15.5398
    15.8282  17.5622

          k = 0.4500 0.2500 0.3500 (  4693 PWs)   bands (ev):

   -44.6352 -21.0289 -21.0139 -20.9981  -5.3912  -4.9512  -4.8564  -3.6721
    -3.6417  -3.4694  -3.4369  -3.3774   4.3821   6.7937   6.9703   7.2032
     7.7299   8.3669   9.4334  10.7541  10.7841  11.3115  15.1962  15.4668
    15.8180  17.5511

          k = 0.4500 0.2500 0.4500 (  4695 PWs)   bands (ev):

   -44.6349 -21.0282 -21.0131 -21.0131  -5.3891  -4.8738  -4.8610  -3.6634
    -3.6168  -3.4359  -3.4245  -3.3199   4.3973   6.7893   6.8156   7.0914
     7.4154   8.3486   8.9657  10.7905  10.7910  11.4996  15.4556  15.5185
    15.9231  17.9058

          k =-0.3500 0.4500 0.3500 (  4700 PWs)   bands (ev):

   -44.6346 -21.0697 -20.9971 -20.9969  -5.1642  -4.9902  -4.9842  -3.6465
    -3.6214  -3.3862  -3.3382  -3.2989   4.6682   6.3774   6.6270   7.0781
     7.6567   7.7797   8.5608  11.1189  11.1751  11.2510  15.3966  15.6539
    15.8320  17.9942

          k = 0.4500 0.3500 0.4500 (  4702 PWs)   bands (ev):

   -44.6343 -21.0530 -21.0121 -21.0120  -5.1981  -4.9581  -4.9456  -3.6254
    -3.6127  -3.3047  -3.2902  -3.2739   4.9033   6.3226   6.3432   7.0312
     7.4132   7.6624   7.9253  11.1980  11.2036  11.4873  15.6385  15.7047
    15.8988  18.3918

     the Fermi energy is    11.7518 ev

!    total energy              =    -364.93935827 Ry
     Harris-Foulkes estimate   =    -364.93935827 Ry
     estimated scf accuracy    <          2.3E-09 Ry

     The total energy is the sum of the following terms:

     one-electron contribution =     -72.74457874 Ry
     hartree contribution      =      67.89429614 Ry
     xc contribution           =     -86.07576553 Ry
     ewald contribution        =    -274.01879008 Ry
     smearing contrib. (-TS)   =       0.00547992 Ry

     convergence has been achieved in   7 iterations

     Forces acting on atoms (cartesian axes, Ry/au):

     atom    1 type  1   force =     0.00000000    0.01831314    0.00000000
     atom    2 type  2   force =     0.00000000   -0.03196637    0.00000000
     atom    3 type  3   force =     0.00000000    0.00222926    0.00000000
     atom    4 type  3   force =     0.00000000    0.00919472    0.00000000
     atom    5 type  3   force =     0.00000000    0.00222926    0.00000000

     Total force =     0.033412     Total SCF correction =     0.000012


     Computing stress (Cartesian axis) and pressure

          total   stress  (Ry/bohr**3)                   (kbar)     P=  160.27
   0.00103787   0.00000000   0.00000000        152.68      0.00      0.00
   0.00000000   0.00119269   0.00000000          0.00    175.45      0.00
   0.00000000   0.00000000   0.00103787          0.00      0.00    152.68


     number of scf cycles    =   2
     number of bfgs steps    =   1

     energy   old            =    -364.9341289921 Ry
     energy   new            =    -364.9393582715 Ry

     CASE: energy  _new < energy  _old

     new trust radius        =       0.0519603842 bohr
     new conv_thr            =       0.0000000032 Ry


ATOMIC_POSITIONS (crystal)
Pb       0.000000000   0.000000000   0.000000000    0   0   0
Ti       0.500000000   0.531021308   0.500000000
O        0.500000000   0.500153347   0.000000000
O        0.500000000   0.009658791   0.500000000
O        0.000000000   0.500153347   0.500000000



     Writing output data file PbTiO3.save/
     NEW-OLD atomic charge density approx. for the potential

     Check: negative core charge=   -0.000006

     total cpu time spent up to now is      775.7 secs

     Self-consistent Calculation

     iteration #  1     ecut=    80.00 Ry     beta= 0.70
     Davidson diagonalization with overlap
     ethr =  1.00E-06,  avg # of iterations =  5.0

     total cpu time spent up to now is      839.2 secs

     total energy              =    -364.94043313 Ry
     Harris-Foulkes estimate   =    -364.94096515 Ry
     estimated scf accuracy    <       0.00080058 Ry

     iteration #  2     ecut=    80.00 Ry     beta= 0.70
     Davidson diagonalization with overlap
     ethr =  1.82E-06,  avg # of iterations =  3.9

     total cpu time spent up to now is      877.7 secs

     total energy              =    -364.94039892 Ry
     Harris-Foulkes estimate   =    -364.94088738 Ry
     estimated scf accuracy    <       0.00098511 Ry

     iteration #  3     ecut=    80.00 Ry     beta= 0.70
     Davidson diagonalization with overlap
     ethr =  1.82E-06,  avg # of iterations =  3.5

     total cpu time spent up to now is      912.4 secs

     total energy              =    -364.94063498 Ry
     Harris-Foulkes estimate   =    -364.94074905 Ry
     estimated scf accuracy    <       0.00032028 Ry

     iteration #  4     ecut=    80.00 Ry     beta= 0.70
     Davidson diagonalization with overlap
     ethr =  7.28E-07,  avg # of iterations =  3.0

     total cpu time spent up to now is      941.4 secs

     total energy              =    -364.94068693 Ry
     Harris-Foulkes estimate   =    -364.94068812 Ry
     estimated scf accuracy    <       0.00000279 Ry

     iteration #  5     ecut=    80.00 Ry     beta= 0.70
     Davidson diagonalization with overlap
     ethr =  6.35E-09,  avg # of iterations =  3.7

     total cpu time spent up to now is      982.2 secs

     total energy              =    -364.94068912 Ry
     Harris-Foulkes estimate   =    -364.94068920 Ry
     estimated scf accuracy    <       0.00000025 Ry

     iteration #  6     ecut=    80.00 Ry     beta= 0.70
     Davidson diagonalization with overlap
     ethr =  5.69E-10,  avg # of iterations =  3.1

     total cpu time spent up to now is     1016.5 secs

     total energy              =    -364.94068913 Ry
     Harris-Foulkes estimate   =    -364.94068924 Ry
     estimated scf accuracy    <       0.00000030 Ry

     iteration #  7     ecut=    80.00 Ry     beta= 0.70
     Davidson diagonalization with overlap
     ethr =  5.69E-10,  avg # of iterations =  2.7

     total cpu time spent up to now is     1047.5 secs

     total energy              =    -364.94068918 Ry
     Harris-Foulkes estimate   =    -364.94068919 Ry
     estimated scf accuracy    <          4.9E-09 Ry

     iteration #  8     ecut=    80.00 Ry     beta= 0.70
     Davidson diagonalization with overlap
     ethr =  1.11E-11,  avg # of iterations =  3.9

     total cpu time spent up to now is     1086.2 secs

     End of self-consistent calculation

          k = 0.0500 0.0500 0.0500 (  4713 PWs)   bands (ev):

   -44.6852 -21.0102 -20.9849 -20.9848  -6.3893  -5.2158  -5.1834  -3.6581
    -3.6522  -3.6518  -3.5075  -3.5048   5.8657   7.8056   7.8182   8.0417
    10.0862  10.1011  10.2501  10.6317  10.7403  10.8335  13.7991  13.9824
    13.9843  16.3299

          k = 0.0500 0.0500 0.1500 (  4716 PWs)   bands (ev):

   -44.6849 -21.0097 -21.0004 -20.9843  -6.2889  -5.1784  -5.1420  -3.6696
    -3.6630  -3.6512  -3.5456  -3.4968   5.4632   7.8571   7.8883   8.3146
     9.8576   9.9243  10.2480  10.4848  10.5844  10.8108  13.9840  14.1685
    14.2451  16.3886

          k = 0.0500 0.0500 0.2500 (  4713 PWs)   bands (ev):

   -44.6844 -21.0257 -21.0086 -20.9833  -6.1218  -5.1152  -5.0728  -3.6911
    -3.6788  -3.6499  -3.6097  -3.4846   5.0043   7.8899   8.0181   8.2491
     9.5836   9.6440  10.1931  10.4231  10.6282  10.8946  13.9859  14.6964
    14.7248  16.3865

          k = 0.0500 0.0500 0.3500 (  4709 PWs)   bands (ev):

   -44.6838 -21.0505 -21.0077 -20.9824  -5.9477  -5.0462  -5.0024  -3.7256
    -3.6928  -3.6674  -3.6486  -3.4745   4.6667   7.5004   8.1811   8.3268
     9.2522   9.3202  10.1241  10.4748  10.7379  11.3744  13.9861  15.1835
    15.2094  15.8992

          k = 0.0500 0.0500 0.4500 (  4711 PWs)   bands (ev):

   -44.6835 -21.0658 -21.0071 -20.9818  -5.8360  -4.9991  -4.9591  -3.7629
    -3.7015  -3.6905  -3.6479  -3.4694   4.5004   7.1431   8.3220   8.5397
     8.9814   9.0468  10.0791  10.5183  10.7845  11.9144  13.9822  15.0929
    15.4764  15.5086

          k = 0.0500 0.1500 0.1500 (  4709 PWs)   bands (ev):

   -44.6846 -21.0254 -20.9998 -20.9837  -6.1861  -5.1404  -5.1104  -3.6798
    -3.6680  -3.6608  -3.5379  -3.5134   5.1822   7.8053   7.9275   8.5252
     9.5475   9.7602  10.1955  10.3878  10.5506  10.8126  14.1649  14.3263
    14.5209  16.6278

          k = 0.0500 0.1500 0.2500 (  4708 PWs)   bands (ev):

   -44.6840 -21.0259 -21.0233 -20.9827  -6.0248  -5.0903  -5.0406  -3.7034
    -3.6802  -3.6603  -3.5696  -3.5028   4.8162   7.7720   8.0382   8.3956
     9.2842   9.5244  10.0164  10.4197  10.4522  11.0432  14.3187  14.7021
    14.9161  16.6939

          k = 0.0500 0.1500 0.3500 (  4702 PWs)   bands (ev):

   -44.6835 -21.0497 -21.0233 -20.9817  -5.8612  -5.0375  -4.9644  -3.7305
    -3.6909  -3.6596  -3.6024  -3.4927   4.5222   7.4788   8.1073   8.3668
     8.9977   9.2860  10.0173  10.4101  10.4673  11.4119  14.3129  15.1860
    15.3408  16.0720

          k = 0.0500 0.1500 0.4500 (  4703 PWs)   bands (ev):

   -44.6832 -21.0649 -21.0227 -20.9812  -5.7594  -5.0013  -4.9150  -3.7514
    -3.7000  -3.6591  -3.6148  -3.4904   4.3702   7.1510   8.1680   8.5441
     8.8248   9.0086  10.0888  10.3920  10.4952  11.7049  14.2979  15.4706
    15.5285  15.6131

          k = 0.0500 0.2500 0.2500 (  4701 PWs)   bands (ev):

   -44.6835 -21.0496 -21.0236 -20.9817  -5.8724  -5.0489  -4.9759  -3.7103
    -3.6832  -3.6713  -3.5318  -3.5251   4.5382   7.6733   8.0968   8.2537
     9.0747   9.1754   9.7453  10.2842  10.6710  11.1990  14.6788  14.8327
    15.2408  16.6936

          k = 0.0500 0.2500 0.3500 (  4700 PWs)   bands (ev):

   -44.6830 -21.0494 -21.0474 -20.9807  -5.7395  -5.0007  -4.8930  -3.7215
    -3.6901  -3.6737  -3.5436  -3.5005   4.2982   7.4576   7.9645   8.2444
     8.8098   9.1426   9.5840  10.1918  10.8011  11.2894  14.8031  15.1790
    15.5653  16.3710

          k = 0.0500 0.2500 0.4500 (  4701 PWs)   bands (ev):

   -44.6826 -21.0636 -21.0477 -20.9801  -5.6664  -4.9582  -4.8383  -3.7320
    -3.6985  -3.6751  -3.5328  -3.4981   4.1659   7.1635   8.0003   8.1784
     8.7864   9.0593   9.5421  10.1972  10.8176  11.3306  14.7950  15.4625
    15.7884  16.1675

          k = 0.0500 0.3500 0.3500 (  4702 PWs)   bands (ev):

   -44.6824 -21.0733 -21.0471 -20.9797  -5.6517  -4.9138  -4.8182  -3.7179
    -3.6939  -3.6790  -3.5625  -3.4381   4.0880   7.3702   7.5839   8.2727
     8.6292   9.0313   9.4594  10.0313  11.0031  11.1459  15.1500  15.2918
    15.8013  16.6787

          k = 0.0500 0.3500 0.4500 (  4687 PWs)   bands (ev):

   -44.6821 -21.0725 -21.0623 -20.9791  -5.6198  -4.8490  -4.7551  -3.7211
    -3.6972  -3.6843  -3.5709  -3.3983   3.9704   7.1586   7.4942   8.2433
     8.5339   9.1577   9.3209   9.9606  10.8212  11.2638  15.2758  15.4483
    15.9866  16.7777

          k = 0.0500 0.4500 0.4500 (  4700 PWs)   bands (ev):

   -44.6818 -21.0877 -21.0614 -20.9785  -5.6110  -4.7492  -4.7017  -3.7219
    -3.6960  -3.6886  -3.5939  -3.3391   3.8540   7.0328   7.2948   8.2991
     8.3621   9.1733   9.3373   9.8391  10.5263  11.4552  15.4355  15.5709
    16.1295  17.1523

          k = 0.1500 0.1500 0.1500 (  4716 PWs)   bands (ev):

   -44.6842 -21.0248 -20.9994 -20.9989  -6.0895  -5.1112  -5.0790  -3.6865
    -3.6837  -3.6597  -3.5232  -3.5207   4.9945   7.7829   7.8029   8.6816
     9.3780   9.4353  10.3024  10.4257  10.5104  10.7094  14.4302  14.5119
    14.5273  17.2016

          k = 0.1500 0.1500 0.2500 (  4716 PWs)   bands (ev):

   -44.6837 -21.0252 -21.0227 -20.9981  -5.9328  -5.0707  -5.0158  -3.7111
    -3.6830  -3.6561  -3.5436  -3.5022   4.7126   7.7153   7.7835   8.4555
     9.0919   9.2653  10.1472  10.4480  10.5454  10.9304  14.4802  14.8461
    14.9150  16.8059

          k = 0.1500 0.1500 0.3500 (  4708 PWs)   bands (ev):

   -44.6832 -21.0490 -21.0227 -20.9971  -5.7775  -5.0323  -4.9409  -3.7300
    -3.6747  -3.6487  -3.5721  -3.4922   4.4634   7.4712   7.7487   8.2251
     8.8883   9.3384   9.8224  10.5205  10.5710  11.2528  14.4137  15.2455
    15.3314  16.2452

          k = 0.1500 0.1500 0.4500 (  4710 PWs)   bands (ev):

   -44.6828 -21.0642 -21.0221 -20.9965  -5.6836  -5.0084  -4.8881  -3.7378
    -3.6688  -3.6384  -3.5942  -3.4921   4.3277   7.1587   7.7075   8.2745
     8.8032   9.3881   9.6321  10.5551  10.5762  11.4272  14.3463  15.5043
    15.6010  15.9838

          k = 0.1500 0.2500 0.2500 (  4706 PWs)   bands (ev):

   -44.6832 -21.0490 -21.0230 -20.9971  -5.7763  -5.0315  -4.9812  -3.7131
    -3.6920  -3.6423  -3.5083  -3.5047   4.5250   7.5733   7.6612   8.2511
     8.7042   9.0668  10.2142  10.3413  10.7058  11.0000  14.7340  14.9149
    15.1768  16.5569

          k = 0.1500 0.2500 0.3500 (  4707 PWs)   bands (ev):

   -44.6826 -21.0488 -21.0467 -20.9961  -5.6423  -5.0113  -4.9033  -3.7175
    -3.6815  -3.6268  -3.5141  -3.4825   4.3413   7.4089   7.5830   7.8894
     8.4562   9.1191  10.0259  10.3558  10.8282  11.0279  14.7426  15.1973
    15.4787  16.5148

          k = 0.1500 0.2500 0.4500 (  4699 PWs)   bands (ev):

   -44.6823 -21.0629 -21.0470 -20.9955  -5.5695  -4.9952  -4.8445  -3.7171
    -3.6723  -3.6181  -3.5077  -3.4828   4.2323   7.1642   7.4767   7.8252
     8.4089   9.2211   9.8014  10.4309  10.8264  11.0065  14.7145  15.4463
    15.7090  16.5806

          k = 0.1500 0.3500 0.3500 (  4692 PWs)   bands (ev):

   -44.6821 -21.0727 -21.0464 -20.9951  -5.5440  -4.9448  -4.8616  -3.7102
    -3.6707  -3.6069  -3.5191  -3.4212   4.2007   7.3001   7.4746   7.6070
[...]

   -44.7240 -21.0666 -21.0638 -21.0634  -5.6256  -4.9951  -4.9934  -3.6874
    -3.6873  -3.5984  -3.4694  -3.4684   4.4866   7.3751   7.3790   8.2421
     8.4133   8.4219  10.5719  10.6087  10.6443  10.8312  14.7507  15.1095
    15.1116  16.5603

          k = 0.2500 0.2500 0.3500 (  4705 PWs)   bands (ev):

   -44.7235 -21.0885 -21.0653 -21.0626  -5.4922  -5.0064  -4.9257  -3.6845
    -3.6650  -3.5556  -3.4496  -3.4472   4.3994   7.1346   7.2783   7.6518
     8.2828   8.4077  10.2446  10.7098  10.7250  10.9588  14.7580  15.2519
    15.4392  16.8001

          k = 0.2500 0.2500 0.4500 (  4695 PWs)   bands (ev):

   -44.7232 -21.1036 -21.0647 -21.0619  -5.4259  -5.0139  -4.8637  -3.6795
    -3.6510  -3.5086  -3.4554  -3.4370   4.3339   6.9852   7.1252   7.4177
     8.2498   8.4631   9.9789  10.6894  10.7496  11.0213  14.8020  15.4303
    15.6751  17.1213

          k = 0.2500 0.3500 0.3500 (  4688 PWs)   bands (ev):

   -44.7230 -21.0900 -21.0872 -21.0616  -5.3792  -4.9761  -4.9228  -3.6670
    -3.6418  -3.5041  -3.4280  -3.3833   4.4059   6.9469   7.0230   7.5014
     7.7210   8.3179   9.8114  10.7784  10.8111  11.1548  14.9730  15.3408
    15.5947  17.1696

          k = 0.2500 0.3500 0.4500 (  4693 PWs)   bands (ev):

   -44.7227 -21.1024 -21.0892 -21.0609  -5.3418  -4.9671  -4.8746  -3.6595
    -3.6215  -3.4593  -3.4273  -3.3441   4.3884   6.8023   7.0077   7.1447
     7.6436   8.3258   9.4177  10.7885  10.8272  11.2804  15.1459  15.4358
    15.7748  17.5664

          k = 0.2500 0.4500 0.4500 (  4695 PWs)   bands (ev):

   -44.7223 -21.1044 -21.1017 -21.0603  -5.3324  -4.8917  -4.8794  -3.6513
    -3.5955  -3.4279  -3.4163  -3.2829   4.3955   6.8130   6.8451   7.0473
     7.2907   8.3203   8.9439  10.8210  10.8278  11.4598  15.4113  15.4672
    15.8996  17.9318

          k = 0.3500 0.3500 0.3500 (  4695 PWs)   bands (ev):

   -44.7225 -21.0889 -21.0863 -21.0860  -5.2287  -4.9798  -4.9786  -3.6306
    -3.6303  -3.4182  -3.3448  -3.3438   4.5959   6.6378   6.6403   7.4296
     7.6673   7.6677   9.0894  11.0884  11.0921  11.2034  15.1536  15.5719
    15.5731  17.5917

          k = 0.3500 0.3500 0.4500 (  4700 PWs)   bands (ev):

   -44.7221 -21.1013 -21.0882 -21.0855  -5.1802  -5.0120  -4.9321  -3.6248
    -3.6076  -3.3548  -3.3270  -3.2937   4.6984   6.4218   6.5876   7.1109
     7.5686   7.6599   8.5569  11.1346  11.1931  11.3117  15.3716  15.5696
    15.7719  18.0182

          k = 0.3500 0.4500 0.4500 (  4702 PWs)   bands (ev):

   -44.7218 -21.1033 -21.1006 -21.0849  -5.1438  -4.9725  -4.9621  -3.6129
    -3.5911  -3.2951  -3.2835  -3.2380   4.9037   6.3332   6.3675   6.9995
     7.2851   7.6191   7.9125  11.2498  11.2547  11.4478  15.5909  15.6512
    15.8534  18.4242

          k = 0.4500 0.4500 0.4500 (  4704 PWs)   bands (ev):

   -44.7215 -21.1026 -21.1000 -21.1000  -5.0358  -5.0081  -5.0071  -3.5892
    -3.5890  -3.2165  -3.2055  -3.2048   5.4404   6.1120   6.1128   6.8983
     7.0488   7.2867   7.2892  11.4338  11.4361  11.4485  15.7788  15.8328
    15.8335  18.8210

          k =-0.0500 0.1500 0.0500 (  4716 PWs)   bands (ev):

   -44.7263 -21.0447 -21.0259 -21.0258  -6.2871  -5.1721  -5.1646  -3.6570
    -3.6538  -3.6435  -3.5373  -3.4906   5.4770   7.8611   7.8814   8.3161
     9.9150   9.9568  10.2801  10.4885  10.7539  10.7754  13.7720  14.1580
    14.1607  16.2692

          k =-0.0500 0.2500 0.0500 (  4713 PWs)   bands (ev):

   -44.7258 -21.0700 -21.0249 -21.0248  -6.1169  -5.1114  -5.0913  -3.6799
    -3.6683  -3.6422  -3.6013  -3.4778   5.0164   7.9024   8.0048   8.2303
     9.5787   9.6309  10.2240  10.4767  10.7612  10.9041  13.7738  14.6923
    14.7011  16.2692

          k =-0.0500 0.3500 0.0500 (  4709 PWs)   bands (ev):

   -44.7252 -21.0950 -21.0239 -21.0239  -5.9399  -5.0445  -5.0165  -3.7158
    -3.6814  -3.6585  -3.6409  -3.4669   4.6793   7.4800   8.1555   8.2965
     9.2552   9.2820  10.1562  10.6214  10.8002  11.3983  13.7743  15.1872
    15.1964  15.9304

          k =-0.0500 0.4500 0.0500 (  4711 PWs)   bands (ev):

   -44.7249 -21.1104 -21.0233 -21.0233  -5.8267  -4.9991  -4.9698  -3.7539
    -3.6888  -3.6819  -3.6401  -3.4612   4.5148   7.0948   8.2812   8.4895
     8.9923   9.0377  10.1131  10.6880  10.8325  11.9368  13.7715  15.1224
    15.4831  15.4903

          k = 0.1500 0.0500 0.1500 (  4709 PWs)   bands (ev):

   -44.7260 -21.0418 -21.0412 -21.0278  -6.1879  -5.1428  -5.1221  -3.6716
    -3.6559  -3.6516  -3.5313  -3.5049   5.1983   7.8084   7.9421   8.5323
     9.5950   9.7876  10.2294  10.4387  10.5769  10.8030  14.1271  14.1785
    14.4308  16.5599

          k =-0.0500 0.2500 0.1500 (  4708 PWs)   bands (ev):

   -44.7254 -21.0693 -21.0404 -21.0243  -6.0237  -5.0916  -5.0506  -3.6938
    -3.6673  -3.6525  -3.5619  -3.4959   4.8299   7.7741   8.0394   8.3998
     9.2565   9.5452  10.0229  10.4617  10.5459  11.0393  14.1438  14.6982
    14.8861  16.6241

          k = 0.2500 0.0500 0.1500 (  4708 PWs)   bands (ev):

   -44.7254 -21.0666 -21.0404 -21.0268  -6.0247  -5.0930  -5.0491  -3.6942
    -3.6671  -3.6522  -3.5623  -3.4952   4.8307   7.7758   8.0439   8.3984
     9.2577   9.5451  10.0239  10.4610  10.5448  11.0375  14.1501  14.6883
    14.8808  16.6304

          k =-0.0500 0.3500 0.1500 (  4702 PWs)   bands (ev):

   -44.7249 -21.0942 -21.0394 -21.0233  -5.8584  -5.0352  -4.9740  -3.7209
    -3.6774  -3.6519  -3.5957  -3.4851   4.5349   7.4571   8.0822   8.3614
     8.9750   9.2911  10.0431  10.4424  10.5701  11.4268  14.1371  15.1914
    15.3260  16.1087

          k = 0.3500 0.0500 0.1500 (  4702 PWs)   bands (ev):

   -44.7249 -21.0916 -21.0394 -21.0259  -5.8601  -5.0366  -4.9725  -3.7213
    -3.6769  -3.6516  -3.5962  -3.4845   4.5364   7.4598   8.0878   8.3660
     8.9719   9.2964  10.0306  10.4422  10.5735  11.4231  14.1435  15.1825
    15.3212  16.1100

          k =-0.0500 0.4500 0.1500 (  4703 PWs)   bands (ev):

   -44.7246 -21.1096 -21.0388 -21.0227  -5.7563  -4.9946  -4.9252  -3.7423
    -3.6858  -3.6513  -3.6088  -3.4821   4.3833   7.1022   8.1293   8.5299
     8.8028   9.0365  10.1265  10.4146  10.5982  11.7287  14.1220  15.4852
    15.5565  15.6024

          k = 0.4500 0.0500 0.1500 (  4703 PWs)   bands (ev):

   -44.7246 -21.1069 -21.0388 -21.0253  -5.7585  -4.9961  -4.9236  -3.7426
    -3.6851  -3.6511  -3.6095  -3.4815   4.3853   7.1053   8.1399   8.5364
     8.8025   9.0323  10.1098  10.4158  10.6025  11.7254  14.1283  15.4780
    15.5609  15.5937

          k = 0.2500 0.0500 0.2500 (  4701 PWs)   bands (ev):

   -44.7249 -21.0659 -21.0650 -21.0259  -5.8800  -5.0538  -4.9756  -3.7007
    -3.6716  -3.6610  -3.5224  -3.5202   4.5554   7.6926   8.1253   8.2468
     9.0605   9.1712   9.7739  10.3022  10.7146  11.1761  14.6376  14.7272
    15.2118  16.6994

          k =-0.0500 0.3500 0.2500 (  4700 PWs)   bands (ev):

   -44.7244 -21.0930 -21.0643 -21.0223  -5.7462  -4.9933  -4.8981  -3.7112
    -3.6772  -3.6653  -3.5358  -3.4950   4.3115   7.4409   7.9617   8.2314
     8.8288   9.1311   9.5898  10.2374  10.8203  11.2995  14.6661  15.1896
    15.5586  16.3964

          k = 0.3500 0.0500 0.2500 (  4700 PWs)   bands (ev):

   -44.7244 -21.0903 -21.0643 -21.0249  -5.7485  -4.9936  -4.8969  -3.7115
    -3.6767  -3.6646  -3.5355  -3.4957   4.3124   7.4469   7.9593   8.2354
     8.8254   9.1322   9.5901  10.2397  10.8247  11.2951  14.6672  15.1806
    15.5553  16.3973

          k =-0.0500 0.4500 0.2500 (  4701 PWs)   bands (ev):

   -44.7240 -21.1082 -21.0636 -21.0217  -5.6746  -4.9398  -4.8480  -3.7226
    -3.6843  -3.6674  -3.5249  -3.4930   4.1773   7.1156   7.9940   8.1593
     8.8350   9.0411   9.5397  10.2515  10.8164  11.3670  14.6563  15.4844
    15.7838  16.2049

          k = 0.4500 0.0500 0.2500 (  4701 PWs)   bands (ev):

   -44.7240 -21.1056 -21.0636 -21.0243  -5.6774  -4.9403  -4.8466  -3.7227
    -3.6834  -3.6669  -3.5243  -3.4943   4.1785   7.1213   7.9994   8.1548
     8.8383   9.0444   9.5301  10.2552  10.8199  11.3639  14.6575  15.4769
    15.7809  16.2030

          k = 0.3500 0.0500 0.3500 (  4702 PWs)   bands (ev):

   -44.7238 -21.0894 -21.0888 -21.0239  -5.6703  -4.9042  -4.8152  -3.7072
    -3.6820  -3.6676  -3.5534  -3.4357   4.1026   7.4524   7.4901   8.2875
     8.6278   9.0360   9.4813  10.0117  11.0271  11.1454  15.1321  15.2073
    15.8097  16.6694

          k =-0.0500 0.4500 0.3500 (  4687 PWs)   bands (ev):

   -44.7235 -21.1069 -21.0883 -21.0207  -5.6366  -4.8227  -4.7638  -3.7107
    -3.6836  -3.6760  -3.5623  -3.3951   3.9806   7.1233   7.4963   8.2203
     8.5809   9.1327   9.3535   9.9470  10.8086  11.3042  15.1619  15.4821
    16.0015  16.8072

          k = 0.4500 0.0500 0.3500 (  4687 PWs)   bands (ev):

   -44.7235 -21.1043 -21.0883 -21.0233  -5.6398  -4.8223  -4.7627  -3.7108
    -3.6827  -3.6749  -3.5619  -3.3967   3.9808   7.1314   7.4940   8.2195
     8.5769   9.1441   9.3490   9.9478  10.8096  11.3063  15.1638  15.4743
    15.9958  16.8044

          k = 0.4500 0.0500 0.4500 (  4700 PWs)   bands (ev):

   -44.7232 -21.1035 -21.1034 -21.0226  -5.6342  -4.7220  -4.7068  -3.7106
    -3.6817  -3.6782  -3.5856  -3.3384   3.8632   7.0546   7.2522   8.3103
     8.3481   9.2547   9.3309   9.7690  10.5270  11.4838  15.4657  15.4778
    16.1533  17.1379

          k =-0.1500 0.2500 0.1500 (  4716 PWs)   bands (ev):

   -44.7251 -21.0686 -21.0400 -21.0396  -5.9280  -5.0662  -5.0333  -3.7012
    -3.6738  -3.6465  -3.5340  -3.4949   4.7242   7.7348   7.7697   8.4664
     9.1089   9.2540  10.1174  10.5094  10.5768  10.9116  14.3913  14.8535
    14.8729  16.8175

          k =-0.1500 0.3500 0.1500 (  4708 PWs)   bands (ev):

   -44.7246 -21.0935 -21.0389 -21.0386  -5.7690  -5.0300  -4.9545  -3.7209
    -3.6661  -3.6382  -3.5621  -3.4843   4.4737   7.4570   7.7211   8.2341
     8.9080   9.3194   9.8070  10.5583  10.6072  11.2588  14.3214  15.2835
    15.2880  16.2619

          k =-0.1500 0.4500 0.1500 (  4710 PWs)   bands (ev):

   -44.7242 -21.1088 -21.0383 -21.0380  -5.6733  -5.0070  -4.8990  -3.7293
    -3.6608  -3.6269  -3.5839  -3.4838   4.3381   7.1102   7.6806   8.2927
     8.8195   9.3461   9.6515  10.5721  10.6240  11.4436  14.2499  15.5415
    15.5645  16.0126

          k = 0.2500 0.1500 0.2500 (  4706 PWs)   bands (ev):

   -44.7246 -21.0652 -21.0644 -21.0414  -5.7799  -5.0361  -4.9822  -3.7029
    -3.6817  -3.6324  -3.4997  -3.4979   4.5408   7.5919   7.6838   8.2566
     8.6949   9.0310  10.2849  10.3143  10.7455  10.9560  14.7224  14.8502
    15.1416  16.5555

          k =-0.1500 0.3500 0.2500 (  4707 PWs)   bands (ev):

   -44.7240 -21.0923 -21.0637 -21.0378  -5.6437  -5.0031  -4.9123  -3.7077
    -3.6725  -3.6148  -3.5051  -3.4769   4.3536   7.4071   7.5724   7.8758
     8.4947   9.0707   9.9859  10.4258  10.8424  11.0321  14.6673  15.2110
    15.4565  16.5193

          k = 0.3500 0.1500 0.2500 (  4707 PWs)   bands (ev):

   -44.7240 -21.0896 -21.0637 -21.0404  -5.6456  -5.0040  -4.9108  -3.7076
    -3.6724  -3.6145  -3.5049  -3.4773   4.3544   7.4116   7.5762   7.8726
     8.4914   9.0719   9.9920  10.4229  10.8452  11.0275  14.6700  15.2045
    15.4543  16.5196

          k =-0.1500 0.4500 0.2500 (  4699 PWs)   bands (ev):

   -44.7237 -21.1075 -21.0630 -21.0371  -5.5716  -4.9805  -4.8551  -3.7079
    -3.6643  -3.6029  -3.5002  -3.4772   4.2427   7.1189   7.4496   7.8453
     8.4610   9.1653   9.7644  10.4920  10.8116  11.0552  14.6252  15.4772
    15.6870  16.6109

          k = 0.4500 0.1500 0.2500 (  4699 PWs)   bands (ev):

   -44.7237 -21.1048 -21.0630 -21.0397  -5.5740  -4.9813  -4.8534  -3.7077
    -3.6640  -3.6025  -3.4996  -3.4784   4.2439   7.1242   7.4550   7.8413
     8.4565   9.1683   9.7685  10.4891  10.8113  11.0541  14.6277  15.4706
    15.6852  16.6099

          k = 0.3500 0.1500 0.3500 (  4692 PWs)   bands (ev):

   -44.7235 -21.0887 -21.0881 -21.0393  -5.5587  -4.9362  -4.8587  -3.6991
    -3.6605  -3.5955  -3.5088  -3.4185   4.2152   7.3577   7.4693   7.5603
     8.0043   9.0572  10.1156  10.2027  10.6799  11.1487  15.0151  15.2208
    15.6705  16.8267

          k =-0.1500 0.4500 0.3500 (  4686 PWs)   bands (ev):

   -44.7232 -21.1062 -21.0876 -21.0361  -5.5240  -4.8835  -4.8108  -3.6952
    -3.6443  -3.5866  -3.5203  -3.3781   4.1241   7.1172   7.4121   7.4527
     7.9017   9.1044   9.9342  10.2736  10.4205  11.2861  15.0874  15.4310
    15.8541  17.1313

          k = 0.4500 0.1500 0.3500 (  4686 PWs)   bands (ev):

   -44.7232 -21.1036 -21.0876 -21.0387  -5.5269  -4.8835  -4.8093  -3.6949
    -3.6440  -3.5859  -3.5194  -3.3798   4.1244   7.1273   7.4083   7.4515
     7.9006   9.1049   9.9388  10.2719  10.4183  11.2893  15.0888  15.4248
    15.8515  17.1307

          k = 0.4500 0.1500 0.4500 (  4673 PWs)   bands (ev):

   -44.7229 -21.1028 -21.1027 -21.0381  -5.5212  -4.7940  -4.7803  -3.6890
    -3.6120  -3.5738  -3.5500  -3.3201   4.0416   7.0475   7.2365   7.5117
     7.5773   9.1252   9.8730  10.1448  10.1825  11.4760  15.3888  15.4227
    15.9946  17.4589

          k =-0.2500 0.3500 0.2500 (  4705 PWs)   bands (ev):

   -44.7235 -21.0911 -21.0629 -21.0624  -5.4912  -5.0051  -4.9273  -3.6846
    -3.6650  -3.5557  -3.4498  -3.4468   4.3988   7.1305   7.2804   7.6488
     8.3000   8.3940  10.2398  10.7185  10.7223  10.9575  14.7554  15.2572
    15.4385  16.7999

          k =-0.2500 0.4500 0.2500 (  4695 PWs)   bands (ev):

   -44.7232 -21.1063 -21.0621 -21.0618  -5.4245  -5.0126  -4.8655  -3.6797
    -3.6511  -3.5087  -3.4558  -3.4364   4.3329   6.9802   7.1220   7.4208
     8.2644   8.4510   9.9755  10.6900  10.7544  11.0198  14.7987  15.4369
    15.6746  17.1218

          k = 0.3500 0.2500 0.3500 (  4688 PWs)   bands (ev):

   -44.7230 -21.0875 -21.0871 -21.0642  -5.3808  -4.9759  -4.9220  -3.6667
    -3.6419  -3.5036  -3.4271  -3.3847   4.4061   6.9488   7.0223   7.5007
     7.7243   8.3154   9.8121  10.7793  10.8084  11.1578  14.9724  15.3390
    15.5942  17.1698

          k =-0.2500 0.4500 0.3500 (  4693 PWs)   bands (ev):

   -44.7227 -21.1051 -21.0866 -21.0609  -5.3415  -4.9653  -4.8763  -3.6596
    -3.6216  -3.4592  -3.4274  -3.3440   4.3878   6.7967   7.0148   7.1401
     7.6483   8.3231   9.4179  10.7839  10.8324  11.2802  15.1425  15.4406
    15.7743  17.5664

          k = 0.4500 0.2500 0.3500 (  4693 PWs)   bands (ev):

   -44.7227 -21.1024 -21.0866 -21.0635  -5.3438  -4.9657  -4.8746  -3.6593
    -3.6216  -3.4581  -3.4267  -3.3457   4.3882   6.8016   7.0115   7.1423
     7.6480   8.3220   9.4183  10.7860  10.8287  11.2837  15.1437  15.4361
    15.7740  17.5665

          k = 0.4500 0.2500 0.4500 (  4695 PWs)   bands (ev):

   -44.7223 -21.1017 -21.1017 -21.0629  -5.3349  -4.8907  -4.8788  -3.6510
    -3.5956  -3.4265  -3.4154  -3.2849   4.3952   6.8161   6.8471   7.0455
     7.2929   8.3170   8.9448  10.8224  10.8257  11.4636  15.4105  15.4653
    15.8988  17.9319

          k =-0.3500 0.4500 0.3500 (  4700 PWs)   bands (ev):

   -44.7221 -21.1040 -21.0856 -21.0854  -5.1792  -5.0110  -4.9337  -3.6251
    -3.6075  -3.3564  -3.3261  -3.2930   4.6980   6.4194   6.5907   7.1072
     7.5747   7.6555   8.5575  11.1387  11.1900  11.3100  15.3707  15.5723
    15.7714  18.0179

          k = 0.4500 0.3500 0.4500 (  4702 PWs)   bands (ev):

   -44.7218 -21.1007 -21.1006 -21.0875  -5.1457  -4.9716  -4.9615  -3.6127
    -3.5912  -3.2936  -3.2829  -3.2401   4.9037   6.3341   6.3674   7.0007
     7.2877   7.6155   7.9126  11.2499  11.2522  11.4514  15.5906  15.6502
    15.8537  18.4243

     the Fermi energy is    11.7570 ev

!    total energy              =    -364.94263224 Ry
     Harris-Foulkes estimate   =    -364.94263224 Ry
     estimated scf accuracy    <          3.3E-11 Ry

     The total energy is the sum of the following terms:

     one-electron contribution =     -72.46307072 Ry
     hartree contribution      =      67.73608683 Ry
     xc contribution           =     -86.06337057 Ry
     ewald contribution        =    -274.15785305 Ry
     smearing contrib. (-TS)   =       0.00557526 Ry

     convergence has been achieved in   7 iterations

     Forces acting on atoms (cartesian axes, Ry/au):

     atom    1 type  1   force =     0.00000000   -0.00170423    0.00000000
     atom    2 type  2   force =     0.00000000    0.00059327    0.00000000
     atom    3 type  3   force =     0.00000000    0.00081091    0.00000000
     atom    4 type  3   force =     0.00000000   -0.00051086    0.00000000
     atom    5 type  3   force =     0.00000000    0.00081091    0.00000000

     Total force =     0.001389     Total SCF correction =     0.000007


     Computing stress (Cartesian axis) and pressure

          total   stress  (Ry/bohr**3)                   (kbar)     P=  152.56
   0.00103376   0.00000000   0.00000000        152.07      0.00      0.00
   0.00000000   0.00104365   0.00000000          0.00    153.53      0.00
   0.00000000   0.00000000   0.00103376          0.00      0.00    152.07


     bfgs converged in   8 scf cycles and   7 bfgs steps
     (criteria: energy <  1.0E-04 Ry, force <  1.0E-03 Ry/Bohr)

     End of BFGS Geometry Optimization

     Final energy   =    -364.9426322433 Ry
Begin final coordinates

ATOMIC_POSITIONS (crystal)
Pb       0.000000000   0.000000000   0.000000000    0   0   0
Ti       0.500000000   0.498164518   0.500000000
O        0.500000000   0.506678282   0.000000000
O        0.500000000   0.005178344   0.500000000
O        0.000000000   0.506678282   0.500000000
End final coordinates



     Writing output data file PbTiO3.save/

     init_run     :     10.99s CPU     14.61s WALL (       1 calls)
     electrons    :   1834.48s CPU   2566.37s WALL (       8 calls)
     update_pot   :      2.60s CPU      2.75s WALL (       7 calls)
     forces       :     38.57s CPU     43.77s WALL (       8 calls)
     stress       :     99.78s CPU    108.63s WALL (       8 calls)

     Called by init_run:
     wfcinit      :      8.25s CPU     11.58s WALL (       1 calls)
     potinit      :      0.27s CPU      0.29s WALL (       1 calls)
     hinit0       :      1.88s CPU      1.90s WALL (       1 calls)

     Called by electrons:
     c_bands      :   1581.12s CPU   2165.75s WALL (      70 calls)
     sum_band     :    201.35s CPU    330.46s WALL (      70 calls)
     v_of_rho     :     15.22s CPU     16.50s WALL (      76 calls)
     newd         :     40.49s CPU     58.92s WALL (      76 calls)
     mix_rho      :      1.30s CPU      1.51s WALL (      70 calls)

     Called by c_bands:
     init_us_2    :     25.53s CPU     33.72s WALL (   11775 calls)
     cegterg      :   1505.19s CPU   2082.60s WALL (    5250 calls)

     Called by sum_band:
     sum_band:bec :      0.32s CPU      0.45s WALL (    5250 calls)
     addusdens    :     50.64s CPU     67.64s WALL (      70 calls)

     Called by *egterg:
     h_psi        :    832.72s CPU   1339.56s WALL (   22681 calls)
     s_psi        :    154.27s CPU    171.69s WALL (   22681 calls)
     g_psi        :     13.88s CPU     18.41s WALL (   17356 calls)
     cdiaghg      :     27.93s CPU     37.99s WALL (   21931 calls)

     Called by h_psi:
     h_psi:pot    :    829.44s CPU   1334.34s WALL (   22681 calls)
     h_psi:calbec :    154.36s CPU    172.62s WALL (   22681 calls)
     vloc_psi     :    516.26s CPU    988.24s WALL (   22681 calls)
     add_vuspsi   :    157.24s CPU    171.61s WALL (   22681 calls)

     General routines
     calbec       :    242.33s CPU    268.70s WALL (   30931 calls)
     fft          :      7.20s CPU      7.98s WALL (    1181 calls)
     ffts         :      0.17s CPU      0.27s WALL (     146 calls)
     fftw         :    530.38s CPU   1027.68s WALL (  901020 calls)
     interpolate  :      0.66s CPU      0.79s WALL (      76 calls)

     Parallel routines

     PWSCF        :  33m11.30s CPU  45m42.87s WALL


   This run was terminated on:  10:55:59  14May2020            

=------------------------------------------------------------------------------=
   JOB DONE.
=------------------------------------------------------------------------------=
