
     Program PWSCF v.6.4.1 starts on 13May2020 at 22:27:19 

     This program is part of the open-source Quantum ESPRESSO suite
     for quantum simulation of materials; please cite
         "P. Giannozzi et al., J. Phys.:Condens. Matter 21 395502 (2009);
         "P. Giannozzi et al., J. Phys.:Condens. Matter 29 465901 (2017);
          URL http://www.quantum-espresso.org", 
     in publications or presentations arising from this work. More details at
     http://www.quantum-espresso.org/quote

     Parallel version (MPI), running on     1 processors

     MPI processes distributed on     1 nodes
     Reading input from PTO_7.49_10_0.445.pw.in
Warning: card  &CELL ignored
Warning: card   CELL_DYNAMICS = 'BFGS', ignored
Warning: card  / ignored

     Current dimensions of program PWSCF are:
     Max number of different atomic species (ntypx) = 10
     Max number of k-points (npk) =  40000
     Max angular momentum in pseudopotentials (lmaxx) =  3
     Message from routine read_upf::
     Pseudo file Pb.pbe-dn-rrkjus_psl.0.2.2.UPF has been fixed on the fly.
To avoid this message in the future, permanently fix 
 your pseudo files following these instructions: 
https://gitlab.com/QEF/q-e/blob/master/upftools/how_to_fix_upf.md
     Message from routine read_upf::
     Pseudo file O.pbe-n-rrkjus_psl.0.1.UPF has been fixed on the fly.
To avoid this message in the future, permanently fix 
 your pseudo files following these instructions: 
https://gitlab.com/QEF/q-e/blob/master/upftools/how_to_fix_upf.md
               file Pb.pbe-dn-rrkjus_psl.0.2.2.UPF: wavefunction(s)  6S renormalized

     Subspace diagonalization in iterative solution of the eigenvalue problem:
     a serial algorithm will be used


     G-vector sticks info
     --------------------
     sticks:   dense  smooth     PW     G-vecs:    dense   smooth      PW
     Sum        3569    1433    421               160467    40651    6235



     bravais-lattice index     =            1
     lattice parameter (alat)  =       7.4900  a.u.
     unit-cell volume          =     420.1897 (a.u.)^3
     number of atoms/cell      =            5
     number of atomic types    =            3
     number of electrons       =        44.00
     number of Kohn-Sham states=           26
     kinetic-energy cutoff     =      80.0000  Ry
     charge density cutoff     =     800.0000  Ry
     convergence threshold     =      1.0E-08
     mixing beta               =       0.7000
     number of iterations used =            8  plain     mixing
     Exchange-correlation      = PBE ( 1  4  3  4 0 0)
     nstep                     =           50


     celldm(1)=   7.490000  celldm(2)=   0.000000  celldm(3)=   0.000000
     celldm(4)=   0.000000  celldm(5)=   0.000000  celldm(6)=   0.000000

     crystal axes: (cart. coord. in units of alat)
               a(1) = (   1.000000   0.000000   0.000000 )  
               a(2) = (   0.000000   1.000000   0.000000 )  
               a(3) = (   0.000000   0.000000   1.000000 )  

     reciprocal axes: (cart. coord. in units 2 pi/alat)
               b(1) = (  1.000000  0.000000  0.000000 )  
               b(2) = (  0.000000  1.000000  0.000000 )  
               b(3) = (  0.000000  0.000000  1.000000 )  


     PseudoPot. # 1 for Pb read from file:
     ./Pb.pbe-dn-rrkjus_psl.0.2.2.UPF
     MD5 check sum: 7afc420059c37d6888fc09c0f121e83f
     Pseudo is Ultrasoft + core correction, Zval = 14.0
     Generated using "atomic" code by A. Dal Corso v.5.0.2 svn rev. 9415
     Using radial grid of 1281 points,  6 beta functions with: 
                l(1) =   0
                l(2) =   0
                l(3) =   1
                l(4) =   1
                l(5) =   2
                l(6) =   2
     Q(r) pseudized with 0 coefficients 


     PseudoPot. # 2 for Ti read from file:
     ./Ti.pbe-sp-van_ak.UPF
     MD5 check sum: 8e4df49b7f0d34bbd5052bf3f5ea0213
     Pseudo is Ultrasoft, Zval = 12.0
     Generated by new atomic code, or converted to UPF format
     Using radial grid of  851 points,  6 beta functions with: 
                l(1) =   0
                l(2) =   0
                l(3) =   1
                l(4) =   1
                l(5) =   2
                l(6) =   2
     Q(r) pseudized with  8 coefficients,  rinner =    1.000   1.000   1.000
                                                       1.000   1.000

     PseudoPot. # 3 for O  read from file:
     ./O.pbe-n-rrkjus_psl.0.1.UPF
     MD5 check sum: e057bbcf3229fb5d8c36c0c92f9568b4
     Pseudo is Ultrasoft + core correction, Zval =  6.0
     Generated using "atomic" code by A. Dal Corso v.5.0.2 svn rev. 9415
     Using radial grid of 1095 points,  4 beta functions with: 
                l(1) =   0
                l(2) =   0
                l(3) =   1
                l(4) =   1
     Q(r) pseudized with 0 coefficients 


     atomic species   valence    mass     pseudopotential
        Pb            14.00   207.20000     Pb( 1.00)
        Ti            12.00    47.87000     Ti( 1.00)
        O              6.00    16.00000     O ( 1.00)

      8 Sym. Ops. (no inversion) found



   Cartesian axes

     site n.     atom                  positions (alat units)
         1           Pb  tau(   1) = (   0.0000000   0.0000000   0.0000000  )
         2           Ti  tau(   2) = (   0.5000000   0.4450000   0.5000000  )
         3           O   tau(   3) = (   0.5000000   0.5000000   0.0000000  )
         4           O   tau(   4) = (   0.5000000   0.0000000   0.5000000  )
         5           O   tau(   5) = (   0.0000000   0.5000000   0.5000000  )

     number of k points=    75  Marzari-Vanderbilt smearing, width (Ry)=  0.0250
                       cart. coord. in units 2pi/alat
        k(    1) = (   0.0500000   0.0500000   0.0500000), wk =   0.0160000
        k(    2) = (   0.0500000   0.0500000   0.1500000), wk =   0.0320000
        k(    3) = (   0.0500000   0.0500000   0.2500000), wk =   0.0320000
        k(    4) = (   0.0500000   0.0500000   0.3500000), wk =   0.0320000
        k(    5) = (   0.0500000   0.0500000   0.4500000), wk =   0.0320000
        k(    6) = (   0.0500000   0.1500000   0.1500000), wk =   0.0320000
        k(    7) = (   0.0500000   0.1500000   0.2500000), wk =   0.0320000
        k(    8) = (   0.0500000   0.1500000   0.3500000), wk =   0.0320000
        k(    9) = (   0.0500000   0.1500000   0.4500000), wk =   0.0320000
        k(   10) = (   0.0500000   0.2500000   0.2500000), wk =   0.0320000
        k(   11) = (   0.0500000   0.2500000   0.3500000), wk =   0.0320000
        k(   12) = (   0.0500000   0.2500000   0.4500000), wk =   0.0320000
        k(   13) = (   0.0500000   0.3500000   0.3500000), wk =   0.0320000
        k(   14) = (   0.0500000   0.3500000   0.4500000), wk =   0.0320000
        k(   15) = (   0.0500000   0.4500000   0.4500000), wk =   0.0320000
        k(   16) = (   0.1500000   0.1500000   0.1500000), wk =   0.0160000
        k(   17) = (   0.1500000   0.1500000   0.2500000), wk =   0.0320000
        k(   18) = (   0.1500000   0.1500000   0.3500000), wk =   0.0320000
        k(   19) = (   0.1500000   0.1500000   0.4500000), wk =   0.0320000
        k(   20) = (   0.1500000   0.2500000   0.2500000), wk =   0.0320000
        k(   21) = (   0.1500000   0.2500000   0.3500000), wk =   0.0320000
        k(   22) = (   0.1500000   0.2500000   0.4500000), wk =   0.0320000
        k(   23) = (   0.1500000   0.3500000   0.3500000), wk =   0.0320000
        k(   24) = (   0.1500000   0.3500000   0.4500000), wk =   0.0320000
        k(   25) = (   0.1500000   0.4500000   0.4500000), wk =   0.0320000
        k(   26) = (   0.2500000   0.2500000   0.2500000), wk =   0.0160000
        k(   27) = (   0.2500000   0.2500000   0.3500000), wk =   0.0320000
        k(   28) = (   0.2500000   0.2500000   0.4500000), wk =   0.0320000
        k(   29) = (   0.2500000   0.3500000   0.3500000), wk =   0.0320000
        k(   30) = (   0.2500000   0.3500000   0.4500000), wk =   0.0320000
        k(   31) = (   0.2500000   0.4500000   0.4500000), wk =   0.0320000
        k(   32) = (   0.3500000   0.3500000   0.3500000), wk =   0.0160000
        k(   33) = (   0.3500000   0.3500000   0.4500000), wk =   0.0320000
        k(   34) = (   0.3500000   0.4500000   0.4500000), wk =   0.0320000
        k(   35) = (   0.4500000   0.4500000   0.4500000), wk =   0.0160000
        k(   36) = (  -0.0500000   0.1500000   0.0500000), wk =   0.0160000
        k(   37) = (  -0.0500000   0.2500000   0.0500000), wk =   0.0160000
        k(   38) = (  -0.0500000   0.3500000   0.0500000), wk =   0.0160000
        k(   39) = (  -0.0500000   0.4500000   0.0500000), wk =   0.0160000
        k(   40) = (   0.1500000   0.0500000   0.1500000), wk =   0.0160000
        k(   41) = (  -0.0500000   0.2500000   0.1500000), wk =   0.0320000
        k(   42) = (   0.2500000   0.0500000   0.1500000), wk =   0.0320000
        k(   43) = (  -0.0500000   0.3500000   0.1500000), wk =   0.0320000
        k(   44) = (   0.3500000   0.0500000   0.1500000), wk =   0.0320000
        k(   45) = (  -0.0500000   0.4500000   0.1500000), wk =   0.0320000
        k(   46) = (   0.4500000   0.0500000   0.1500000), wk =   0.0320000
        k(   47) = (   0.2500000   0.0500000   0.2500000), wk =   0.0160000
        k(   48) = (  -0.0500000   0.3500000   0.2500000), wk =   0.0320000
        k(   49) = (   0.3500000   0.0500000   0.2500000), wk =   0.0320000
        k(   50) = (  -0.0500000   0.4500000   0.2500000), wk =   0.0320000
        k(   51) = (   0.4500000   0.0500000   0.2500000), wk =   0.0320000
        k(   52) = (   0.3500000   0.0500000   0.3500000), wk =   0.0160000
        k(   53) = (  -0.0500000   0.4500000   0.3500000), wk =   0.0320000
        k(   54) = (   0.4500000   0.0500000   0.3500000), wk =   0.0320000
        k(   55) = (   0.4500000   0.0500000   0.4500000), wk =   0.0160000
        k(   56) = (  -0.1500000   0.2500000   0.1500000), wk =   0.0160000
        k(   57) = (  -0.1500000   0.3500000   0.1500000), wk =   0.0160000
        k(   58) = (  -0.1500000   0.4500000   0.1500000), wk =   0.0160000
        k(   59) = (   0.2500000   0.1500000   0.2500000), wk =   0.0160000
        k(   60) = (  -0.1500000   0.3500000   0.2500000), wk =   0.0320000
        k(   61) = (   0.3500000   0.1500000   0.2500000), wk =   0.0320000
        k(   62) = (  -0.1500000   0.4500000   0.2500000), wk =   0.0320000
        k(   63) = (   0.4500000   0.1500000   0.2500000), wk =   0.0320000
        k(   64) = (   0.3500000   0.1500000   0.3500000), wk =   0.0160000
        k(   65) = (  -0.1500000   0.4500000   0.3500000), wk =   0.0320000
        k(   66) = (   0.4500000   0.1500000   0.3500000), wk =   0.0320000
        k(   67) = (   0.4500000   0.1500000   0.4500000), wk =   0.0160000
        k(   68) = (  -0.2500000   0.3500000   0.2500000), wk =   0.0160000
        k(   69) = (  -0.2500000   0.4500000   0.2500000), wk =   0.0160000
        k(   70) = (   0.3500000   0.2500000   0.3500000), wk =   0.0160000
        k(   71) = (  -0.2500000   0.4500000   0.3500000), wk =   0.0320000
        k(   72) = (   0.4500000   0.2500000   0.3500000), wk =   0.0320000
        k(   73) = (   0.4500000   0.2500000   0.4500000), wk =   0.0160000
        k(   74) = (  -0.3500000   0.4500000   0.3500000), wk =   0.0160000
        k(   75) = (   0.4500000   0.3500000   0.4500000), wk =   0.0160000

     Dense  grid:   160467 G-vectors     FFT dimensions: (  72,  72,  72)

     Smooth grid:    40651 G-vectors     FFT dimensions: (  45,  45,  45)

     Estimated max dynamical RAM per process >     759.22 MB

     Check: negative core charge=   -0.000006

     Initial potential from superposition of free atoms

     starting charge   42.99760, renormalised to   44.00000
     Starting wfcs are   31 randomized atomic wfcs

     total cpu time spent up to now is       17.2 secs

     Self-consistent Calculation

     iteration #  1     ecut=    80.00 Ry     beta= 0.70
     Davidson diagonalization with overlap
     ethr =  1.00E-02,  avg # of iterations =  2.0

     total cpu time spent up to now is       48.0 secs

     total energy              =    -364.40763348 Ry
     Harris-Foulkes estimate   =    -365.28571074 Ry
     estimated scf accuracy    <       1.10315357 Ry

     iteration #  2     ecut=    80.00 Ry     beta= 0.70
     Davidson diagonalization with overlap
     ethr =  2.51E-03,  avg # of iterations =  4.1

     total cpu time spent up to now is       94.1 secs

     total energy              =    -363.49508976 Ry
     Harris-Foulkes estimate   =    -365.70645175 Ry
     estimated scf accuracy    <       7.77130483 Ry

     iteration #  3     ecut=    80.00 Ry     beta= 0.70
     Davidson diagonalization with overlap
     ethr =  2.51E-03,  avg # of iterations =  4.8

     total cpu time spent up to now is      139.7 secs

     total energy              =    -364.92595967 Ry
     Harris-Foulkes estimate   =    -365.08974041 Ry
     estimated scf accuracy    <       0.44586720 Ry

     iteration #  4     ecut=    80.00 Ry     beta= 0.70
     Davidson diagonalization with overlap
     ethr =  1.01E-03,  avg # of iterations =  3.3

     total cpu time spent up to now is      169.6 secs

     total energy              =    -364.91425337 Ry
     Harris-Foulkes estimate   =    -364.95902008 Ry
     estimated scf accuracy    <       0.14948670 Ry

     iteration #  5     ecut=    80.00 Ry     beta= 0.70
     Davidson diagonalization with overlap
     ethr =  3.40E-04,  avg # of iterations =  4.4

     total cpu time spent up to now is      208.7 secs

     total energy              =    -364.95114075 Ry
     Harris-Foulkes estimate   =    -364.95156225 Ry
     estimated scf accuracy    <       0.00226230 Ry

     iteration #  6     ecut=    80.00 Ry     beta= 0.70
     Davidson diagonalization with overlap
     ethr =  5.14E-06,  avg # of iterations =  4.1

     total cpu time spent up to now is      251.9 secs

     total energy              =    -364.95145601 Ry
     Harris-Foulkes estimate   =    -364.95209562 Ry
     estimated scf accuracy    <       0.00311344 Ry

     iteration #  7     ecut=    80.00 Ry     beta= 0.70
     Davidson diagonalization with overlap
     ethr =  5.14E-06,  avg # of iterations =  2.3

     total cpu time spent up to now is      281.2 secs

     total energy              =    -364.95135556 Ry
     Harris-Foulkes estimate   =    -364.95168568 Ry
     estimated scf accuracy    <       0.00084075 Ry

     iteration #  8     ecut=    80.00 Ry     beta= 0.70
     Davidson diagonalization with overlap
     ethr =  1.91E-06,  avg # of iterations =  3.8

     total cpu time spent up to now is      314.2 secs

     total energy              =    -364.95154955 Ry
     Harris-Foulkes estimate   =    -364.95155644 Ry
     estimated scf accuracy    <       0.00004783 Ry

     iteration #  9     ecut=    80.00 Ry     beta= 0.70
     Davidson diagonalization with overlap
     ethr =  1.09E-07,  avg # of iterations =  2.1

     total cpu time spent up to now is      347.3 secs

     total energy              =    -364.95154818 Ry
     Harris-Foulkes estimate   =    -364.95155673 Ry
     estimated scf accuracy    <       0.00002759 Ry

     iteration # 10     ecut=    80.00 Ry     beta= 0.70
     Davidson diagonalization with overlap
     ethr =  6.27E-08,  avg # of iterations =  2.8

     total cpu time spent up to now is      377.3 secs

     total energy              =    -364.95155053 Ry
     Harris-Foulkes estimate   =    -364.95155125 Ry
     estimated scf accuracy    <       0.00000140 Ry

     iteration # 11     ecut=    80.00 Ry     beta= 0.70
     Davidson diagonalization with overlap
     ethr =  3.19E-09,  avg # of iterations =  3.3

     total cpu time spent up to now is      420.9 secs

     total energy              =    -364.95155112 Ry
     Harris-Foulkes estimate   =    -364.95155125 Ry
     estimated scf accuracy    <       0.00000025 Ry

     iteration # 12     ecut=    80.00 Ry     beta= 0.70
     Davidson diagonalization with overlap
     ethr =  5.68E-10,  avg # of iterations =  2.2

     total cpu time spent up to now is      451.8 secs

     total energy              =    -364.95155116 Ry
     Harris-Foulkes estimate   =    -364.95155116 Ry
     estimated scf accuracy    <       0.00000001 Ry

     iteration # 13     ecut=    80.00 Ry     beta= 0.70
     Davidson diagonalization with overlap
     ethr =  2.59E-11,  avg # of iterations =  3.9

     total cpu time spent up to now is      497.1 secs

     End of self-consistent calculation

          k = 0.0500 0.0500 0.0500 (  5047 PWs)   bands (ev):

   -46.0016 -22.3899 -22.2443 -22.2443  -7.2279  -6.2512  -6.1038  -5.0799
    -5.0561  -5.0558  -4.9197  -4.8980   4.4391   6.8072   6.8649   7.0190
     8.6245   8.6482   9.1583   9.1884   9.5030   9.5454  12.5576  13.1681
    13.1834  14.7904

          k = 0.0500 0.0500 0.1500 (  5074 PWs)   bands (ev):

   -46.0014 -22.3895 -22.2549 -22.2439  -7.1494  -6.2155  -6.0746  -5.0874
    -5.0639  -5.0554  -4.9491  -4.8982   4.1434   6.8655   6.9595   7.1866
     8.4335   8.6212   9.0637   9.1577   9.3636   9.5102  12.8708  13.1784
    13.2110  15.0313

          k = 0.0500 0.0500 0.2500 (  5093 PWs)   bands (ev):

   -46.0010 -22.3888 -22.2720 -22.2433  -7.0189  -6.1520  -6.0287  -5.0998
    -5.0772  -5.0546  -5.0053  -4.8945   3.7746   6.8912   7.0525   7.2200
     8.3730   8.4800   8.9547   9.0737   9.2686   9.5629  13.1792  13.3285
    13.4836  15.0221

          k = 0.0500 0.0500 0.3500 (  5090 PWs)   bands (ev):

   -46.0007 -22.3882 -22.2891 -22.2427  -6.8835  -6.0764  -5.9877  -5.1161
    -5.0946  -5.0600  -5.0538  -4.8923   3.4844   6.5649   7.2356   7.3849
     8.1576   8.2883   8.8616   8.9688   9.3428   9.9328  13.1798  13.7377
    13.8640  14.2317

          k = 0.0500 0.0500 0.4500 (  5073 PWs)   bands (ev):

   -46.0004 -22.3877 -22.2996 -22.2423  -6.7970  -6.0140  -5.9732  -5.1409
    -5.1086  -5.0801  -5.0533  -4.8922   3.3326   6.3020   7.4304   7.6317
     7.8849   8.0145   8.8680   8.9009   9.3938  10.3689  13.1467  13.5383
    13.9803  14.1395

          k = 0.0500 0.1500 0.1500 (  5079 PWs)   bands (ev):

   -46.0011 -22.4005 -22.2545 -22.2435  -7.0532  -6.1970  -6.0463  -5.0873
    -5.0753  -5.0623  -4.9396  -4.9206   3.9194   6.8226   6.9183   7.3556
     8.2426   8.4617   8.9078   9.2054   9.3435   9.6122  12.8703  13.3999
    13.4387  15.1068

          k = 0.0500 0.1500 0.2500 (  5077 PWs)   bands (ev):

   -46.0008 -22.3998 -22.2716 -22.2429  -6.9267  -6.1417  -6.0082  -5.1020
    -5.0870  -5.0618  -4.9712  -4.9108   3.6251   6.7866   7.0424   7.2941
     8.1450   8.3377   8.7851   9.0551   9.2488   9.7600  13.3073  13.4259
    13.6532  15.0992

          k = 0.0500 0.1500 0.3500 (  5080 PWs)   bands (ev):

   -46.0004 -22.3990 -22.2886 -22.2422  -6.7973  -6.0839  -5.9675  -5.1195
    -5.0985  -5.0614  -4.9971  -4.9079   3.3777   6.5424   7.1687   7.3355
     7.9329   8.2167   8.7373   8.9929   9.2244   9.9939  13.4006  13.7293
    13.9805  14.4021

          k = 0.0500 0.1500 0.4500 (  5079 PWs)   bands (ev):

   -46.0002 -22.3986 -22.2990 -22.2419  -6.7158  -6.0471  -5.9399  -5.1333
    -5.1083  -5.0611  -5.0051  -4.9112   3.2436   6.3024   7.2862   7.5023
     7.7487   7.9918   8.7419   9.0683   9.1883  10.1832  13.3718  13.9174
    13.9727  14.2254

          k = 0.0500 0.2500 0.2500 (  5076 PWs)   bands (ev):

   -46.0004 -22.4174 -22.2708 -22.2422  -6.7741  -6.1300  -5.9655  -5.1052
    -5.0932  -5.0696  -4.9481  -4.9224   3.3977   6.6265   7.0486   7.1934
     7.9359   8.0947   8.5604   9.0773   9.4103   9.9238  13.3033  13.7759
    13.9193  15.0133

          k = 0.0500 0.2500 0.3500 (  5080 PWs)   bands (ev):

   -46.0001 -22.4166 -22.2877 -22.2416  -6.6631  -6.0956  -5.9153  -5.1154
    -5.0974  -5.0709  -4.9575  -4.9002   3.2081   6.4799   6.9624   7.2463
     7.7281   8.0829   8.4889   8.8528   9.5090   9.9265  13.6792  13.7856
    14.1564  14.7116

          k = 0.0500 0.2500 0.4500 (  5084 PWs)   bands (ev):

   -45.9999 -22.4161 -22.2982 -22.2412  -6.5983  -6.0755  -5.8745  -5.1205
    -5.1065  -5.0720  -4.9502  -4.8963   3.1004   6.2876   6.9740   7.2758
     7.5938   8.1100   8.4490   8.8159   9.5295   9.8804  13.7442  13.9382
    14.3473  14.5206

          k = 0.0500 0.3500 0.3500 (  5079 PWs)   bands (ev):

   -45.9997 -22.4340 -22.2869 -22.2409  -6.5479  -6.0784  -5.8544  -5.1147
    -5.1006  -5.0738  -4.9809  -4.8403   3.0437   6.2566   6.7386   7.2084
     7.6637   7.9361   8.3713   8.8435   9.5006   9.9559  13.6745  14.1251
    14.3359  15.0493

          k = 0.0500 0.3500 0.4500 (  5079 PWs)   bands (ev):

   -45.9995 -22.4334 -22.2973 -22.2405  -6.5167  -6.0499  -5.8012  -5.1151
    -5.1051  -5.0765  -4.9885  -4.8052   2.9590   6.1736   6.5808   7.3194
     7.4364   8.1250   8.3052   8.6974   9.3209   9.9992  13.9000  14.1204
    14.4988  15.0814

          k = 0.0500 0.4500 0.4500 (  5100 PWs)   bands (ev):

   -45.9993 -22.4441 -22.2967 -22.2400  -6.4921  -5.9997  -5.7509  -5.1184
    -5.1050  -5.0765  -5.0131  -4.7528   2.8730   5.9632   6.4859   7.2531
     7.4790   8.0259   8.3703   8.6582   9.0067  10.1716  13.8757  14.3493
    14.5987  15.4632

          k = 0.1500 0.1500 0.1500 (  5095 PWs)   bands (ev):

   -46.0009 -22.4000 -22.2542 -22.2539  -6.9806  -6.1702  -6.0237  -5.0948
    -5.0808  -5.0626  -4.9388  -4.9199   3.7725   6.7776   6.8552   7.4572
     8.1121   8.2933   8.8299   9.2730   9.4707   9.4779  13.0899  13.4009
    13.4531  15.5778

          k = 0.1500 0.1500 0.2500 (  5084 PWs)   bands (ev):

   -46.0006 -22.3993 -22.2711 -22.2534  -6.8637  -6.1238  -5.9859  -5.1071
    -5.0833  -5.0596  -4.9551  -4.9109   3.5487   6.7332   6.8396   7.3083
     7.9232   8.1320   8.8854   9.2097   9.3608   9.6780  13.3426  13.4841
    13.6492  15.1298

          k = 0.1500 0.1500 0.3500 (  5082 PWs)   bands (ev):

   -46.0002 -22.3986 -22.2881 -22.2528  -6.7488  -6.0728  -5.9454  -5.1185
    -5.0760  -5.0552  -4.9779  -4.9080   3.3444   6.5381   6.8437   7.1828
     7.7477   8.1657   8.7226   9.1957   9.3650   9.8792  13.3016  13.7752
    13.9728  14.6280

          k = 0.1500 0.1500 0.4500 (  5084 PWs)   bands (ev):

   -46.0000 -22.3982 -22.2985 -22.2523  -6.6798  -6.0389  -5.9177  -5.1228
    -5.0692  -5.0513  -4.9927  -4.9122   3.2286   6.3075   6.8459   7.2122
     7.6677   8.2700   8.4829   9.2784   9.3401   9.9799  13.2318  13.9821
    14.2084  14.3862

          k = 0.1500 0.2500 0.2500 (  5081 PWs)   bands (ev):

   -46.0002 -22.4169 -22.2704 -22.2527  -6.7090  -6.1182  -5.9681  -5.1092
    -5.0942  -5.0463  -4.9301  -4.9043   3.3923   6.5609   6.6918   7.1385
     7.6812   7.9764   8.7798   9.2926   9.4627   9.7814  13.3293  13.7242
    13.8756  14.9529

          k = 0.1500 0.2500 0.3500 (  5080 PWs)   bands (ev):

   -45.9999 -22.4161 -22.2873 -22.2520  -6.6059  -6.0979  -5.9242  -5.1118
    -5.0824  -5.0388  -4.9314  -4.8845   3.2536   6.4453   6.6589   6.9108
     7.3693   8.0306   8.8871   9.0588   9.5198   9.7752  13.5010  13.7838
    14.1049  14.9108

          k = 0.1500 0.2500 0.4500 (  5077 PWs)   bands (ev):

   -45.9997 -22.4156 -22.2977 -22.2516  -6.5472  -6.0900  -5.8846  -5.1100
    -5.0710  -5.0397  -4.9231  -4.8829   3.1691   6.2840   6.6432   6.8135
     7.2662   8.1289   8.7510   9.1113   9.4563   9.7387  13.5469  13.9233
    14.3010  14.9244

          k = 0.1500 0.3500 0.3500 (  5081 PWs)   bands (ev):

   -45.9995 -22.4335 -22.2865 -22.2513  -6.4766  -6.1009  -5.8998  -5.1095
    -5.0767  -5.0166  -4.9386  -4.8246   3.1484   6.2142   6.5736   6.6840
     7.1130   8.0055   8.7063   9.1253   9.3969   9.8836  13.5881  14.0036
    14.2637  15.2233

          k = 0.1500 0.3500 0.4500 (  5079 PWs)   bands (ev):

   -45.9993 -22.4330 -22.2968 -22.2509  -6.4449  -6.0941  -5.8514  -5.1048
    -5.0555  -5.0253  -4.9386  -4.7898   3.0935   6.1501   6.4904   6.6465
     6.8769   8.0856   8.7033   8.9762   9.1950   9.9776  13.8468  13.9742
    14.4113  15.4216

          k = 0.1500 0.4500 0.4500 (  5073 PWs)   bands (ev):

   -45.9991 -22.4437 -22.2963 -22.2505  -6.4124  -6.0585  -5.8316  -5.1028
    -5.0391  -5.0066  -4.9621  -4.7360   3.0399   5.9375   6.4212   6.6169
     6.7804   8.0859   8.4382   8.8779   9.1603  10.1425  13.8754  14.2030
    14.5018  15.7589

          k = 0.2500 0.2500 0.2500 (  5070 PWs)   bands (ev):

   -45.9999 -22.4162 -22.2698 -22.2695  -6.6132  -6.0955  -5.9641  -5.0986
    -5.0932  -5.0162  -4.9080  -4.8775   3.3652   6.3680   6.4856   6.9655
     7.4809   7.5782   8.9619   9.5131   9.5225   9.6533  13.3228  13.8416
    13.8528  14.9927

          k = 0.2500 0.2500 0.3500 (  5072 PWs)   bands (ev):

   -45.9995 -22.4154 -22.2865 -22.2690  -6.5345  -6.0758  -5.9369  -5.0922
    -5.0763  -4.9815  -4.8905  -4.8590   3.3165   6.2518   6.3320   6.6667
     7.1981   7.5431   8.8828   9.4161   9.5367   9.8003  13.4144  13.8760
    14.0914  15.1895

          k = 0.2500 0.2500 0.4500 (  5073 PWs)   bands (ev):

   -45.9993 -22.4149 -22.2969 -22.2685  -6.4963  -6.0703  -5.9014  -5.0876
    -5.0638  -4.9499  -4.8819  -4.8566   3.2772   6.1764   6.2693   6.4259
     7.1199   7.5835   8.6817   9.4309   9.4868   9.8570  13.5605  13.9238
    14.2835  15.4141

          k = 0.2500 0.3500 0.3500 (  5057 PWs)   bands (ev):

   -45.9992 -22.4328 -22.2858 -22.2682  -6.3804  -6.1139  -5.9609  -5.0864
    -5.0574  -4.9433  -4.8618  -4.7947   3.3303   5.9848   6.1790   6.4376
     6.9145   7.4338   8.4308   9.4783   9.7272   9.8658  13.5594  14.0323
    14.2207  15.5217

          k = 0.2500 0.3500 0.4500 (  5063 PWs)   bands (ev):

   -45.9990 -22.4323 -22.2961 -22.2678  -6.3528  -6.1280  -5.9202  -5.0792
    -5.0399  -4.9216  -4.8472  -4.7607   3.3434   5.9827   6.0578   6.2604
     6.7069   7.4649   8.0865   9.4858   9.7173   9.9777  13.8292  13.9926
    14.3613  15.8451

          k = 0.2500 0.4500 0.4500 (  5070 PWs)   bands (ev):

   -45.9988 -22.4430 -22.2956 -22.2674  -6.2857  -6.1355  -5.9320  -5.0754
    -5.0218  -4.9023  -4.8281  -4.7043   3.3691   5.7838   6.0799   6.1337
     6.5412   7.4335   7.6257   9.4797   9.7667  10.1178  13.9485  14.1591
    14.4455  16.1757

          k = 0.3500 0.3500 0.3500 (  5055 PWs)   bands (ev):

   -45.9988 -22.4320 -22.2851 -22.2850  -6.3340  -6.0855  -5.9989  -5.0624
    -5.0443  -4.8723  -4.7918  -4.7574   3.5263   5.7306   5.8704   6.2902
     6.8604   6.9436   7.8114   9.7485   9.8574  10.0439  13.7318  14.1940
    14.1962  15.8842

          k = 0.3500 0.3500 0.4500 (  5056 PWs)   bands (ev):

   -45.9986 -22.4316 -22.2954 -22.2846  -6.3316  -6.0801  -5.9788  -5.0515
    -5.0336  -4.8241  -4.7602  -4.7267   3.6510   5.6536   5.6992   6.1426
     6.6846   6.9196   7.3318   9.8043   9.9320  10.1603  13.9781  14.1366
    14.3504  16.2525

          k = 0.3500 0.4500 0.4500 (  5051 PWs)   bands (ev):

   -45.9984 -22.4422 -22.2949 -22.2842  -6.2235  -6.1359  -6.0125  -5.0485
    -5.0171  -4.7989  -4.7103  -4.6660   3.8390   5.4685   5.6730   5.9757
     6.4959   6.7064   6.8939   9.8950  10.0982  10.1583  14.1300  14.2657
    14.4210  16.6075

          k = 0.4500 0.4500 0.4500 (  5034 PWs)   bands (ev):

   -45.9982 -22.4418 -22.2945 -22.2945  -6.2540  -6.0670  -6.0524  -5.0335
    -5.0131  -4.7375  -4.6442  -4.6378   4.3370   5.2973   5.4063   5.8936
     5.9485   6.4782   6.6376  10.0827  10.0968  10.3268  14.3103  14.3957
    14.3999  16.9574

          k =-0.0500 0.1500 0.0500 (  5074 PWs)   bands (ev):

   -46.0014 -22.4009 -22.2439 -22.2439  -7.1298  -6.2299  -6.0689  -5.0793
    -5.0652  -5.0625  -4.9344  -4.9157   4.1334   6.8465   6.8545   7.1984
     8.4683   8.4848   9.0573   9.1402   9.5471   9.5771  12.5594  13.3968
    13.4209  14.7935

          k =-0.0500 0.2500 0.0500 (  5093 PWs)   bands (ev):

   -46.0010 -22.4186 -22.2432 -22.2432  -6.9612  -6.2008  -6.0069  -5.0824
    -5.0785  -5.0722  -4.9965  -4.9111   3.7453   6.8159   6.9091   7.1036
     8.2593   8.2665   9.0887   9.2118   9.6303   9.6860  12.5621  13.7555
    13.7886  14.7996

          k =-0.0500 0.3500 0.0500 (  5090 PWs)   bands (ev):

   -46.0007 -22.4362 -22.2426 -22.2425  -6.7738  -6.1841  -5.9351  -5.1136
    -5.0808  -5.0774  -5.0541  -4.9090   3.4340   6.4518   6.9697   7.1140
     8.0707   8.0832   9.0277   9.4711   9.6858  10.0627  12.5637  14.1041
    14.1432  14.3490

          k =-0.0500 0.4500 0.0500 (  5073 PWs)   bands (ev):

   -46.0004 -22.4470 -22.2421 -22.2421  -6.6410  -6.1873  -5.8834  -5.1538
    -5.0853  -5.0769  -5.0764  -4.9091   3.2684   6.1527   7.0057   7.1725
     7.9492   7.9867   8.9883   9.5669   9.7218  10.5232  12.5618  13.6035
    14.3138  14.3659

          k = 0.1500 0.0500 0.1500 (  5079 PWs)   bands (ev):

   -46.0011 -22.3891 -22.2547 -22.2544  -7.0760  -6.1854  -6.0438  -5.0944
    -5.0643  -5.0620  -4.9510  -4.9121   3.9326   6.8164   7.0281   7.3286
     8.2562   8.4567   8.9062   9.2055   9.4362   9.4874  13.0883  13.2121
    13.2316  15.4182

          k =-0.0500 0.2500 0.1500 (  5077 PWs)   bands (ev):

   -46.0008 -22.4181 -22.2538 -22.2428  -6.8891  -6.1717  -5.9959  -5.0958
    -5.0859  -5.0702  -4.9616  -4.9256   3.6064   6.7050   6.9484   7.2704
     8.0172   8.2601   8.8469   9.2342   9.4140   9.8213  12.8676  13.7416
    13.7962  15.1157

          k = 0.2500 0.0500 0.1500 (  5077 PWs)   bands (ev):

   -46.0008 -22.3884 -22.2716 -22.2538  -6.9569  -6.1292  -5.9948  -5.1037
    -5.0740  -5.0620  -4.9820  -4.9135   3.6398   6.8144   7.0580   7.2990
     8.0983   8.2093   8.8879   9.1789   9.3983   9.6161  13.1899  13.4452
    13.5286  15.2991

          k =-0.0500 0.3500 0.1500 (  5080 PWs)   bands (ev):

   -46.0004 -22.4357 -22.2531 -22.2421  -6.7106  -6.1555  -5.9392  -5.1223
    -5.0854  -5.0763  -4.9924  -4.9231   3.3382   6.3934   6.9318   7.2400
     7.8456   8.0949   8.9529   9.2237   9.4828  10.1249  12.8587  14.0683
    14.1408  14.5362

          k = 0.3500 0.0500 0.1500 (  5080 PWs)   bands (ev):

   -46.0004 -22.3878 -22.2886 -22.2532  -6.8385  -6.0575  -5.9507  -5.1170
    -5.0798  -5.0615  -5.0227  -4.9112   3.3917   6.5680   7.0742   7.4030
     7.8902   8.1958   8.6006   9.2127   9.4119   9.9347  13.1632  13.8030
    13.8980  14.4646

          k =-0.0500 0.4500 0.1500 (  5079 PWs)   bands (ev):

   -46.0002 -22.4465 -22.2526 -22.2417  -6.5881  -6.1540  -5.9002  -5.1460
    -5.0847  -5.0817  -5.0025  -4.9264   3.1904   6.1165   6.9158   7.3011
     7.7411   7.9973   9.0555   9.2029   9.5246  10.3605  12.8443  13.9950
    14.3084  14.3724

          k = 0.4500 0.0500 0.1500 (  5079 PWs)   bands (ev):

   -46.0002 -22.3873 -22.2991 -22.2528  -6.7665  -5.9944  -5.9349  -5.1315
    -5.0825  -5.0611  -5.0436  -4.9124   3.2568   6.3101   7.1777   7.4712
     7.8599   8.0811   8.4328   9.2012   9.4443  10.2156  13.1010  13.9762
    14.0393  14.1574

          k = 0.2500 0.0500 0.2500 (  5076 PWs)   bands (ev):

   -46.0004 -22.3878 -22.2711 -22.2706  -6.8631  -6.0790  -5.9397  -5.1016
    -5.0759  -5.0680  -4.9576  -4.9415   3.4332   6.7701   6.9928   7.2959
     7.7572   7.9498   8.9978   9.0128   9.6089   9.6577  13.3720  13.5161
    13.7698  15.1093

          k =-0.0500 0.3500 0.2500 (  5080 PWs)   bands (ev):

   -46.0001 -22.4348 -22.2700 -22.2415  -6.6192  -6.1159  -5.9156  -5.1168
    -5.0959  -5.0741  -4.9607  -4.9025   3.1874   6.3225   6.9682   7.1479
     7.7615   8.0169   8.4853   9.1350   9.4673  10.0417  13.2866  14.1217
    14.1709  14.8271

          k = 0.3500 0.0500 0.2500 (  5080 PWs)   bands (ev):

   -46.0001 -22.3871 -22.2878 -22.2701  -6.7807  -6.0034  -5.8879  -5.1054
    -5.0780  -5.0690  -4.9693  -4.9378   3.2420   6.5722   6.8904   7.2596
     7.6201   7.9339   8.6552   9.1300   9.5980   9.8864  13.3892  13.8218
    14.0394  14.7758

          k =-0.0500 0.4500 0.2500 (  5084 PWs)   bands (ev):

   -45.9999 -22.4456 -22.2695 -22.2411  -6.5254  -6.0993  -5.8832  -5.1310
    -5.0956  -5.0799  -4.9605  -4.8942   3.0659   6.0597   6.9230   7.1466
     7.6884   7.9797   8.5191   9.1808   9.4408  10.0918  13.2737  14.2868
    14.3561  14.7307

          k = 0.4500 0.0500 0.2500 (  5084 PWs)   bands (ev):

   -45.9999 -22.3867 -22.2982 -22.2697  -6.7368  -5.9319  -5.8672  -5.1142
    -5.0798  -5.0723  -4.9623  -4.9436   3.1319   6.3144   6.9767   7.1151
     7.6631   8.0754   8.3240   9.2193   9.5288  10.0298  13.3603  14.0632
    14.2326  14.5633

          k = 0.3500 0.0500 0.3500 (  5079 PWs)   bands (ev):

   -45.9998 -22.3864 -22.2872 -22.2869  -6.7426  -5.9152  -5.8238  -5.0988
    -5.0831  -5.0668  -4.9841  -4.9034   3.0947   6.4922   6.6684   7.1764
     7.3193   7.9979   8.6872   8.8765   9.5641  10.0286  13.6959  13.8678
    14.2130  15.0319

          k =-0.0500 0.4500 0.3500 (  5079 PWs)   bands (ev):

   -45.9995 -22.4447 -22.2864 -22.2404  -6.4957  -6.0404  -5.8145  -5.1208
    -5.1022  -5.0776  -4.9934  -4.8037   2.9452   6.0060   6.7011   7.1354
     7.6886   7.8880   8.3389   8.8719   9.3042  10.0646  13.6613  14.3501
    14.4641  15.2737

          k = 0.4500 0.0500 0.3500 (  5079 PWs)   bands (ev):

   -45.9995 -22.3860 -22.2974 -22.2865  -6.7280  -5.8346  -5.7922  -5.1015
    -5.0813  -5.0742  -4.9958  -4.8750   3.0058   6.2661   6.6881   7.0311
     7.2854   8.1738   8.4420   8.9001   9.3985  10.1804  13.7579  14.0655
    14.3413  15.1079

          k = 0.4500 0.0500 0.4500 (  5100 PWs)   bands (ev):

   -45.9993 -22.3856 -22.2969 -22.2969  -6.7304  -5.7572  -5.7436  -5.0999
    -5.0788  -5.0737  -5.0262  -4.8298   2.9279   6.1423   6.5906   7.0441
     7.0607   8.3296   8.5111   8.6440   9.1777  10.3545  14.0419  14.0764
    14.4074  15.4105

          k =-0.1500 0.2500 0.1500 (  5084 PWs)   bands (ev):

   -46.0006 -22.4177 -22.2535 -22.2533  -6.8191  -6.1492  -5.9899  -5.1047
    -5.0935  -5.0574  -4.9364  -4.9265   3.5276   6.7009   6.7079   7.3231
     7.9613   8.1145   8.7003   9.3209   9.5222   9.7139  13.0575  13.7182
    13.7872  15.1622

          k =-0.1500 0.3500 0.1500 (  5082 PWs)   bands (ev):

   -46.0002 -22.4352 -22.2527 -22.2526  -6.6451  -6.1353  -5.9544  -5.1254
    -5.0905  -5.0432  -4.9579  -4.9240   3.3019   6.3969   6.6100   7.2317
     7.8705   8.0637   8.6060   9.3322   9.5702   9.9846  12.9944  14.0494
    14.0855  14.6960

          k =-0.1500 0.4500 0.1500 (  5084 PWs)   bands (ev):

   -46.0000 -22.4459 -22.2523 -22.2522  -6.5275  -6.1338  -5.9314  -5.1367
    -5.0886  -5.0267  -4.9738  -4.9301   3.1722   6.1195   6.5489   7.2719
     7.8342   8.0156   8.5991   9.3276   9.6002  10.1151  12.9401  14.2605
    14.2620  14.5000

          k = 0.2500 0.1500 0.2500 (  5081 PWs)   bands (ev):

   -46.0002 -22.3986 -22.2706 -22.2702  -6.7693  -6.0850  -5.9489  -5.1035
    -5.0889  -5.0455  -4.9370  -4.9129   3.4154   6.6208   6.7424   7.1305
     7.5929   7.9446   8.9953   9.2588   9.5372   9.6245  13.4029  13.6226
    13.7621  14.9621

          k =-0.1500 0.3500 0.2500 (  5080 PWs)   bands (ev):

   -45.9999 -22.4344 -22.2696 -22.2520  -6.5503  -6.1123  -5.9485  -5.1168
    -5.0911  -5.0239  -4.9329  -4.8870   3.2310   6.3059   6.5342   6.9519
     7.5826   7.9803   8.5795   9.3798   9.5313   9.8331  13.2634  14.0239
    14.1169  14.9543

          k = 0.3500 0.1500 0.2500 (  5080 PWs)   bands (ev):

   -45.9999 -22.3979 -22.2873 -22.2697  -6.6878  -6.0311  -5.9095  -5.1043
    -5.0810  -5.0246  -4.9362  -4.9122   3.2766   6.5002   6.6370   6.8654
     7.4237   7.9333   8.9079   9.2347   9.4859   9.8124  13.3862  13.8113
    14.0288  14.9174

          k =-0.1500 0.4500 0.2500 (  5077 PWs)   bands (ev):

   -45.9997 -22.4451 -22.2691 -22.2516  -6.4523  -6.1040  -5.9375  -5.1204
    -5.0871  -5.0023  -4.9428  -4.8786   3.1315   6.0669   6.4090   6.9443
     7.5789   8.0452   8.4233   9.4155   9.5186   9.8317  13.2470  14.2388
    14.2991  15.0324

          k = 0.4500 0.1500 0.2500 (  5077 PWs)   bands (ev):

   -45.9997 -22.3975 -22.2977 -22.2693  -6.6454  -5.9904  -5.8821  -5.1038
    -5.0738  -5.0049  -4.9388  -4.9185   3.1909   6.3062   6.5625   6.8067
     7.3951   7.9833   8.7485   9.2885   9.3899   9.8927  13.3795  13.9841
    14.2390  14.9329

          k = 0.3500 0.1500 0.3500 (  5081 PWs)   bands (ev):

   -45.9995 -22.3972 -22.2867 -22.2864  -6.6500  -5.9596  -5.8727  -5.0937
    -5.0747  -4.9999  -4.9268  -4.8871   3.1936   6.4458   6.4676   6.6379
     7.0608   7.9179   8.9342   9.1384   9.2991  10.0315  13.5875  13.8811
    14.1711  15.2004

          k =-0.1500 0.4500 0.3500 (  5079 PWs)   bands (ev):

   -45.9993 -22.4442 -22.2860 -22.2509  -6.4161  -6.0764  -5.8867  -5.1089
    -5.0690  -4.9903  -4.9601  -4.7875   3.0781   5.9833   6.4778   6.6222
     7.1007   8.0270   8.5229   9.0916   9.2965   9.9949  13.6227  14.2159
    14.3964  15.5137

          k = 0.4500 0.1500 0.3500 (  5079 PWs)   bands (ev):

   -45.9993 -22.3968 -22.2969 -22.2861  -6.6373  -5.9044  -5.8471  -5.0898
    -5.0628  -4.9839  -4.9378  -4.8607   3.1366   6.2531   6.4573   6.5285
     6.9471   7.9536   8.7948   9.0935   9.1868  10.1692  13.7129  13.9928
    14.3142  15.4253

          k = 0.4500 0.1500 0.4500 (  5073 PWs)   bands (ev):

   -45.9991 -22.3964 -22.2965 -22.2964  -6.6417  -5.8378  -5.8255  -5.0845
    -5.0425  -4.9700  -4.9575  -4.8158   3.0951   6.1299   6.4427   6.4849
     6.6672   7.9785   8.5975   9.0643   9.0710  10.3490  13.9717  14.0256
    14.3867  15.7295

          k =-0.2500 0.3500 0.2500 (  5072 PWs)   bands (ev):

   -45.9995 -22.4336 -22.2690 -22.2688  -6.4519  -6.1061  -5.9796  -5.1009
    -5.0790  -4.9776  -4.8899  -4.8493   3.2902   6.1282   6.3175   6.6542
     7.4364   7.4519   8.7192   9.5289   9.6408   9.7056  13.3293  14.0019
    14.1150  15.2043

          k =-0.2500 0.4500 0.2500 (  5073 PWs)   bands (ev):

   -45.9993 -22.4443 -22.2686 -22.2684  -6.3501  -6.1120  -5.9892  -5.0999
    -5.0701  -4.9364  -4.8948  -4.8342   3.2333   5.9898   6.0993   6.5948
     7.4228   7.4650   8.5005   9.4710   9.6698   9.7555  13.3967  14.1533
    14.3099  15.4769

          k = 0.3500 0.2500 0.3500 (  5057 PWs)   bands (ev):

   -45.9992 -22.4147 -22.2859 -22.2857  -6.4961  -6.0239  -5.9405  -5.0702
    -5.0675  -4.9247  -4.8483  -4.8387   3.3600   6.0763   6.0967   6.4675
     6.9650   7.3206   8.4839   9.5225   9.5790  10.0369  13.5607  13.9895
    14.1742  15.5115

          k =-0.2500 0.4500 0.3500 (  5063 PWs)   bands (ev):

   -45.9990 -22.4435 -22.2853 -22.2678  -6.2921  -6.1252  -5.9764  -5.0832
    -5.0436  -4.9130  -4.8519  -4.7556   3.3233   5.8102   6.1054   6.2783
     6.8549   7.4146   8.0650   9.4664   9.7696   9.9574  13.6945  14.1574
    14.3637  15.8700

          k = 0.4500 0.2500 0.3500 (  5063 PWs)   bands (ev):

   -45.9990 -22.4142 -22.2962 -22.2853  -6.4873  -5.9987  -5.9185  -5.0650
    -5.0523  -4.8771  -4.8404  -4.8204   3.3743   5.9550   6.0622   6.2446
     6.8440   7.3147   8.1388   9.5581   9.5779  10.1626  13.7805  14.0004
    14.3171  15.8389

          k = 0.4500 0.2500 0.4500 (  5070 PWs)   bands (ev):

   -45.9988 -22.4138 -22.2957 -22.2957  -6.4960  -5.9388  -5.9271  -5.0573
    -5.0372  -4.8355  -4.8232  -4.7872   3.4233   5.9116   5.9261   6.1160
     6.6343   7.2811   7.7272   9.5921   9.5981  10.3403  14.0015  14.0706
    14.3760  16.1554

          k =-0.3500 0.4500 0.3500 (  5056 PWs)   bands (ev):

   -45.9986 -22.4427 -22.2846 -22.2845  -6.2141  -6.1392  -6.0316  -5.0596
    -5.0281  -4.8430  -4.7535  -4.7099   3.6203   5.5406   5.8802   6.0471
     6.7084   6.9392   7.3206   9.8295   9.9754  10.0505  13.9111  14.2298
    14.3650  16.2554

          k = 0.4500 0.3500 0.4500 (  5051 PWs)   bands (ev):

   -45.9984 -22.4311 -22.2950 -22.2949  -6.3477  -6.0209  -6.0084  -5.0348
    -5.0300  -4.7628  -4.7097  -4.7051   3.8839   5.5157   5.5218   6.0282
     6.6353   6.7044   6.7835   9.9336   9.9440  10.3318  14.1673  14.2398
    14.3748  16.6030

     the Fermi energy is    10.4111 ev

!    total energy              =    -364.95155116 Ry
     Harris-Foulkes estimate   =    -364.95155117 Ry
     estimated scf accuracy    <          7.1E-09 Ry

     The total energy is the sum of the following terms:

     one-electron contribution =     -83.97452411 Ry
     hartree contribution      =      71.40890766 Ry
     xc contribution           =     -85.84702391 Ry
     ewald contribution        =    -266.54496836 Ry
     smearing contrib. (-TS)   =       0.00605756 Ry

     convergence has been achieved in  13 iterations

     Forces acting on atoms (cartesian axes, Ry/au):

     atom    1 type  1   force =     0.00000000   -0.02131563    0.00000000
     atom    2 type  2   force =     0.00000000    0.05814229    0.00000000
     atom    3 type  3   force =     0.00000000   -0.00513934    0.00000000
     atom    4 type  3   force =     0.00000000   -0.02654799    0.00000000
     atom    5 type  3   force =     0.00000000   -0.00513934    0.00000000

     Total force =     0.027525     Total SCF correction =     0.000041


     Computing stress (Cartesian axis) and pressure

          total   stress  (Ry/bohr**3)                   (kbar)     P=   26.75
   0.00004473   0.00000000   0.00000000          6.58      0.00      0.00
   0.00000000   0.00045597   0.00000000          0.00     67.08      0.00
   0.00000000   0.00000000   0.00004473          0.00      0.00      6.58


     BFGS Geometry Optimization

     number of scf cycles    =   1
     number of bfgs steps    =   0

     energy   new            =    -364.9515511648 Ry

     new trust radius        =       0.0265479900 bohr
     new conv_thr            =       0.0000000100 Ry


ATOMIC_POSITIONS (crystal)
Pb       0.000000000   0.000000000   0.000000000    0   0   0
Ti       0.500000000   0.445000000   0.500000000    0   0   0
O        0.500000000   0.499313840   0.000000000
O        0.500000000  -0.003544458   0.500000000
O        0.000000000   0.499313840   0.500000000



     Writing output data file PbTiO3.save/
     NEW-OLD atomic charge density approx. for the potential

     Check: negative core charge=   -0.000006

     total cpu time spent up to now is      519.1 secs

     Self-consistent Calculation

     iteration #  1     ecut=    80.00 Ry     beta= 0.70
     Davidson diagonalization with overlap
     ethr =  1.00E-06,  avg # of iterations =  3.9

     total cpu time spent up to now is      569.7 secs

     total energy              =    -364.95209262 Ry
     Harris-Foulkes estimate   =    -364.95223254 Ry
     estimated scf accuracy    <       0.00020168 Ry

     iteration #  2     ecut=    80.00 Ry     beta= 0.70
     Davidson diagonalization with overlap
     ethr =  4.58E-07,  avg # of iterations =  4.2

     total cpu time spent up to now is      610.7 secs

     total energy              =    -364.95204472 Ry
     Harris-Foulkes estimate   =    -364.95228946 Ry
     estimated scf accuracy    <       0.00064137 Ry

     iteration #  3     ecut=    80.00 Ry     beta= 0.70
     Davidson diagonalization with overlap
     ethr =  4.58E-07,  avg # of iterations =  3.5

     total cpu time spent up to now is      649.0 secs

     total energy              =    -364.95216865 Ry
     Harris-Foulkes estimate   =    -364.95218254 Ry
     estimated scf accuracy    <       0.00004068 Ry

     iteration #  4     ecut=    80.00 Ry     beta= 0.70
     Davidson diagonalization with overlap
     ethr =  9.25E-08,  avg # of iterations =  2.7

     total cpu time spent up to now is      682.0 secs

     total energy              =    -364.95217488 Ry
     Harris-Foulkes estimate   =    -364.95217560 Ry
     estimated scf accuracy    <       0.00000145 Ry

     iteration #  5     ecut=    80.00 Ry     beta= 0.70
     Davidson diagonalization with overlap
     ethr =  3.29E-09,  avg # of iterations =  3.8

     total cpu time spent up to now is      720.7 secs

     total energy              =    -364.95217536 Ry
     Harris-Foulkes estimate   =    -364.95217547 Ry
     estimated scf accuracy    <       0.00000020 Ry

     iteration #  6     ecut=    80.00 Ry     beta= 0.70
     Davidson diagonalization with overlap
     ethr =  4.63E-10,  avg # of iterations =  3.5

     total cpu time spent up to now is      758.7 secs

     total energy              =    -364.95217540 Ry
     Harris-Foulkes estimate   =    -364.95217548 Ry
     estimated scf accuracy    <       0.00000026 Ry

     iteration #  7     ecut=    80.00 Ry     beta= 0.70
     Davidson diagonalization with overlap
     ethr =  4.63E-10,  avg # of iterations =  2.7

     total cpu time spent up to now is      792.3 secs

     End of self-consistent calculation

          k = 0.0500 0.0500 0.0500 (  5047 PWs)   bands (ev):

   -46.0327 -22.3994 -22.2757 -22.2757  -7.2281  -6.2458  -6.1106  -5.0736
    -5.0517  -5.0515  -4.9147  -4.8950   4.4437   6.8097   6.8621   7.0118
     8.6686   8.6955   9.1541   9.2149   9.5035   9.5375  12.5333  13.1064
    13.1201  14.7600

          k = 0.0500 0.0500 0.1500 (  5074 PWs)   bands (ev):

   -46.0324 -22.3990 -22.2863 -22.2753  -7.1489  -6.2107  -6.0815  -5.0811
    -5.0596  -5.0511  -4.9443  -4.8950   4.1483   6.8668   6.9508   7.1831
     8.4755   8.6624   9.0740   9.1564   9.3692   9.5115  12.8473  13.1166
    13.1574  14.9844

          k = 0.0500 0.0500 0.2500 (  5093 PWs)   bands (ev):

   -46.0321 -22.3983 -22.3034 -22.2747  -7.0170  -6.1485  -6.0356  -5.0936
    -5.0728  -5.0503  -5.0005  -4.8910   3.7799   6.8846   7.0514   7.2155
     8.4029   8.5022   8.9734   9.0738   9.2801   9.5685  13.1172  13.3045
    13.4411  14.9770

          k = 0.0500 0.0500 0.3500 (  5090 PWs)   bands (ev):

   -46.0318 -22.3976 -22.3204 -22.2741  -6.8797  -6.0749  -5.9944  -5.1107
    -5.0895  -5.0551  -5.0494  -4.8888   3.4902   6.5568   7.2361   7.3802
     8.1646   8.2955   8.8921   8.9788   9.3625   9.9389  13.1172  13.7155
    13.8266  14.2336

          k = 0.0500 0.0500 0.4500 (  5073 PWs)   bands (ev):

   -46.0315 -22.3972 -22.3308 -22.2737  -6.7917  -6.0144  -5.9795  -5.1362
    -5.1023  -5.0755  -5.0490  -4.8887   3.3388   6.2923   7.4330   7.6304
     7.8861   8.0076   8.8903   8.9294   9.4142  10.3771  13.0926  13.5335
    13.9587  14.0994

          k = 0.0500 0.1500 0.1500 (  5079 PWs)   bands (ev):

   -46.0322 -22.4099 -22.2859 -22.2749  -7.0536  -6.1914  -6.0534  -5.0811
    -5.0708  -5.0580  -4.9352  -4.9169   3.9254   6.8228   6.9212   7.3482
     8.2743   8.4954   8.9229   9.2077   9.3395   9.6103  12.8469  13.3452
    13.3848  15.0717

          k = 0.0500 0.1500 0.2500 (  5077 PWs)   bands (ev):

   -46.0319 -22.4092 -22.3029 -22.2743  -6.9258  -6.1371  -6.0153  -5.0963
    -5.0819  -5.0575  -4.9667  -4.9074   3.6311   6.7849   7.0443   7.2876
     8.1648   8.3580   8.8038   9.0597   9.2546   9.7604  13.2808  13.3713
    13.6111  15.0788

          k = 0.0500 0.1500 0.3500 (  5080 PWs)   bands (ev):

   -46.0315 -22.4085 -22.3199 -22.2737  -6.7948  -6.0806  -5.9743  -5.1144
    -5.0926  -5.0571  -4.9930  -4.9045   3.3839   6.5365   7.1675   7.3343
     7.9407   8.2255   8.7511   9.0165   9.2327   9.9973  13.3429  13.7074
    13.9431  14.4020

          k = 0.0500 0.1500 0.4500 (  5079 PWs)   bands (ev):

   -46.0313 -22.4080 -22.3303 -22.2733  -6.7122  -6.0448  -5.9466  -5.1285
    -5.1019  -5.0568  -5.0013  -4.9076   3.2501   6.2935   7.2868   7.5007
     7.7554   7.9894   8.7644   9.0889   9.1998  10.1897  13.3184  13.9123
    13.9548  14.1855

          k = 0.0500 0.2500 0.2500 (  5076 PWs)   bands (ev):

   -46.0315 -22.4268 -22.3021 -22.2736  -6.7755  -6.1232  -5.9726  -5.0999
    -5.0873  -5.0653  -4.9435  -4.9194   3.4050   6.6346   7.0491   7.1879
     7.9505   8.1058   8.5744   9.0743   9.4225   9.9193  13.2815  13.7227
    13.8788  15.0070

          k = 0.0500 0.2500 0.3500 (  5080 PWs)   bands (ev):

   -46.0312 -22.4260 -22.3190 -22.2730  -6.6638  -6.0890  -5.9221  -5.1100
    -5.0915  -5.0665  -4.9533  -4.8974   3.2150   6.4811   6.9554   7.2520
     7.7364   8.0872   8.4943   8.8648   9.5287   9.9221  13.6511  13.7404
    14.1204  14.7077

          k = 0.0500 0.2500 0.4500 (  5084 PWs)   bands (ev):

   -46.0310 -22.4255 -22.3294 -22.2726  -6.5986  -6.0683  -5.8815  -5.1155
    -5.1002  -5.0676  -4.9463  -4.8935   3.1071   6.2815   6.9732   7.2759
     7.6091   8.1052   8.4467   8.8378   9.5540   9.8773  13.6931  13.9182
    14.3121  14.5156

          k = 0.0500 0.3500 0.3500 (  5079 PWs)   bands (ev):

   -46.0308 -22.4434 -22.3182 -22.2723  -6.5530  -6.0668  -5.8617  -5.1091
    -5.0945  -5.0695  -4.9764  -4.8380   3.0514   6.2676   6.7247   7.2205
     7.6621   7.9410   8.3774   8.8436   9.5226   9.9511  13.6552  14.0754
    14.3009  15.0417

          k = 0.0500 0.3500 0.4500 (  5079 PWs)   bands (ev):

   -46.0306 -22.4428 -22.3286 -22.2719  -6.5219  -6.0369  -5.8089  -5.1097
    -5.0988  -5.0723  -4.9843  -4.8031   2.9660   6.1770   6.5750   7.3220
     7.4450   8.1218   8.3004   8.7091   9.3420  10.0024  13.8819  14.0707
    14.4624  15.0772

          k = 0.0500 0.4500 0.4500 (  5100 PWs)   bands (ev):

   -46.0304 -22.4535 -22.3280 -22.2715  -6.4995  -5.9840  -5.7591  -5.1127
    -5.0985  -5.0724  -5.0086  -4.7511   2.8801   5.9721   6.4765   7.2640
     7.4718   8.0293   8.3643   8.6623   9.0280  10.1782  13.8589  14.3006
    14.5634  15.4552

          k = 0.1500 0.1500 0.1500 (  5095 PWs)   bands (ev):

   -46.0320 -22.4095 -22.2856 -22.2853  -6.9801  -6.1654  -6.0308  -5.0889
    -5.0762  -5.0581  -4.9338  -4.9167   3.7780   6.7836   6.8521   7.4517
     8.1346   8.3118   8.8594   9.2743   9.4622   9.4820  13.0672  13.3531
    13.4005  15.5472

          k = 0.1500 0.1500 0.2500 (  5084 PWs)   bands (ev):

   -46.0317 -22.4088 -22.3025 -22.2848  -6.8614  -6.1206  -5.9930  -5.1018
    -5.0783  -5.0549  -4.9502  -4.9075   3.5539   6.7351   6.8409   7.3058
     7.9382   8.1390   8.9155   9.2075   9.3665   9.6770  13.3038  13.4516
    13.6080  15.1307

          k = 0.1500 0.1500 0.3500 (  5082 PWs)   bands (ev):

   -46.0313 -22.4081 -22.3194 -22.2842  -6.7443  -6.0717  -5.9523  -5.1136
    -5.0710  -5.0501  -4.9732  -4.9046   3.3496   6.5324   6.8490   7.1837
     7.7536   8.1772   8.7272   9.2132   9.3726   9.8797  13.2587  13.7524
    13.9361  14.6246

          k = 0.1500 0.1500 0.4500 (  5084 PWs)   bands (ev):

   -46.0311 -22.4076 -22.3298 -22.2838  -6.6737  -6.0393  -5.9245  -5.1181
    -5.0646  -5.0451  -4.9884  -4.9087   3.2339   6.2987   6.8506   7.2178
     7.6681   8.2857   8.4824   9.2935   9.3509   9.9811  13.1934  13.9618
    14.1718  14.3784

          k = 0.1500 0.2500 0.2500 (  5081 PWs)   bands (ev):

   -46.0313 -22.4263 -22.3017 -22.2841  -6.7090  -6.1126  -5.9751  -5.1039
    -5.0887  -5.0416  -4.9252  -4.9016   3.3990   6.5708   6.6975   7.1308
     7.6843   7.9778   8.8152   9.2836   9.4725   9.7756  13.3094  13.6792
    13.8354  14.9491

          k = 0.1500 0.2500 0.3500 (  5080 PWs)   bands (ev):

   -46.0310 -22.4255 -22.3186 -22.2835  -6.6042  -6.0935  -5.9309  -5.1066
    -5.0772  -5.0333  -4.9270  -4.8819   3.2598   6.4482   6.6646   6.9053
     7.3744   8.0293   8.9083   9.0612   9.5353   9.7684  13.4716  13.7525
    14.0685  14.9030

          k = 0.1500 0.2500 0.4500 (  5077 PWs)   bands (ev):

   -46.0308 -22.4251 -22.3290 -22.2831  -6.5446  -6.0860  -5.8914  -5.1050
    -5.0664  -5.0329  -4.9197  -4.8801   3.1751   6.2788   6.6443   6.8175
     7.2731   8.1281   8.7500   9.1299   9.4749   9.7342  13.5079  13.9036
    14.2648  14.9181

          k = 0.1500 0.3500 0.3500 (  5081 PWs)   bands (ev):

   -46.0306 -22.4429 -22.3178 -22.2828  -6.4801  -6.0910  -5.9065  -5.1039
    -5.0712  -5.0115  -4.9344  -4.8225   3.1558   6.2279   6.5776   6.6733
     7.1095   8.0005   8.7359   9.1220   9.3998   9.8880  13.5694  13.9627
    14.2288  15.2140

          k = 0.1500 0.3500 0.4500 (  5079 PWs)   bands (ev):

   -46.0304 -22.4424 -22.3281 -22.2824  -6.4485  -6.0832  -5.8583  -5.0993
    -5.0507  -5.0187  -4.9353  -4.7878   3.1003   6.1571   6.4867   6.6429
     6.8801   8.0788   8.7179   8.9902   9.1937   9.9859  13.8238  13.9380
    14.3771  15.4161

          k = 0.1500 0.4500 0.4500 (  5073 PWs)   bands (ev):

   -46.0302 -22.4530 -22.3276 -22.2819  -6.4194  -6.0438  -5.8385  -5.0971
    -5.0333  -5.0006  -4.9592  -4.7344   3.0470   5.9496   6.4149   6.6166
     6.7729   8.0782   8.4579   8.8941   9.1521  10.1532  13.8563  14.1618
    14.4696  15.7549

          k = 0.2500 0.2500 0.2500 (  5070 PWs)   bands (ev):

   -46.0310 -22.4256 -22.3012 -22.3009  -6.6103  -6.0923  -5.9710  -5.0932
    -5.0882  -5.0112  -4.9028  -4.8751   3.3710   6.3811   6.4880   6.9642
     7.4785   7.5716   9.0011   9.5138   9.5149   9.6523  13.3044  13.8030
    13.8160  14.9838

          k = 0.2500 0.2500 0.3500 (  5072 PWs)   bands (ev):

   -46.0306 -22.4248 -22.3178 -22.3003  -6.5284  -6.0757  -5.9434  -5.0870
    -5.0715  -4.9760  -4.8856  -4.8567   3.3214   6.2600   6.3392   6.6628
     7.1963   7.5368   8.9044   9.4217   9.5401   9.7977  13.3930  13.8444
    14.0573  15.1796

          k = 0.2500 0.2500 0.4500 (  5073 PWs)   bands (ev):

   -46.0304 -22.4244 -22.3282 -22.2999  -6.4883  -6.0718  -5.9078  -5.0825
    -5.0592  -4.9431  -4.8787  -4.8538   3.2817   6.1794   6.2718   6.4289
     7.1202   7.5785   8.6916   9.4426   9.4916   9.8549  13.5299  13.9033
    14.2500  15.4081

          k = 0.2500 0.3500 0.3500 (  5057 PWs)   bands (ev):

   -46.0303 -22.4422 -22.3171 -22.2996  -6.3790  -6.1087  -5.9670  -5.0806
    -5.0526  -4.9369  -4.8583  -4.7930   3.3369   6.0007   6.1807   6.4317
     6.9062   7.4241   8.4489   9.4905   9.7213   9.8750  13.5400  13.9974
    14.1866  15.5117

          k = 0.2500 0.3500 0.4500 (  5063 PWs)   bands (ev):

   -46.0301 -22.4417 -22.3274 -22.2992  -6.3501  -6.1235  -5.9262  -5.0736
    -5.0354  -4.9136  -4.8451  -4.7590   3.3494   5.9986   6.0581   6.2509
     6.7032   7.4552   8.0979   9.5026   9.7113   9.9877  13.8034  13.9643
    14.3288  15.8389

          k = 0.2500 0.4500 0.4500 (  5070 PWs)   bands (ev):

   -46.0299 -22.4523 -22.3269 -22.2987  -6.2913  -6.1224  -5.9379  -5.0696
    -5.0173  -4.8937  -4.8266  -4.7031   3.3761   5.8037   6.0721   6.1258
     6.5333   7.4246   7.6386   9.4970   9.7588  10.1314  13.9271  14.1239
    14.4145  16.1705

          k = 0.3500 0.3500 0.3500 (  5055 PWs)   bands (ev):

   -46.0299 -22.4414 -22.3164 -22.3163  -6.3255  -6.0869  -6.0047  -5.0565
    -5.0400  -4.8650  -4.7886  -4.7562   3.5317   5.7455   5.8711   6.2878
     6.8547   6.9287   7.8216   9.7636   9.8688  10.0377  13.7111  14.1613
    14.1651  15.8756

          k = 0.3500 0.3500 0.4500 (  5056 PWs)   bands (ev):

   -46.0297 -22.4410 -22.3267 -22.3159  -6.3206  -6.0838  -5.9842  -5.0458
    -5.0292  -4.8157  -4.7585  -4.7252   3.6550   5.6621   5.7089   6.1364
     6.6781   6.9082   7.3378   9.8196   9.9437  10.1539  13.9534  14.1090
    14.3201  16.2474

          k = 0.3500 0.4500 0.4500 (  5051 PWs)   bands (ev):

   -46.0295 -22.4516 -22.3262 -22.3155  -6.2131  -6.1387  -6.0177  -5.0426
    -5.0129  -4.7895  -4.7093  -4.6651   3.8454   5.4835   5.6674   5.9695
     6.4928   6.7134   6.8816   9.9118  10.1119  10.1519  14.1069  14.2347
    14.3907  16.6025

          k = 0.4500 0.4500 0.4500 (  5034 PWs)   bands (ev):

   -46.0293 -22.4511 -22.3258 -22.3258  -6.2412  -6.0719  -6.0574  -5.0275
    -5.0090  -4.7276  -4.6435  -4.6372   4.3410   5.3112   5.4076   5.8851
     5.9546   6.4776   6.6196  10.0985  10.1123  10.3191  14.2857  14.3669
    14.3704  16.9546

          k =-0.0500 0.1500 0.0500 (  5074 PWs)   bands (ev):

   -46.0324 -22.4103 -22.2753 -22.2753  -7.1309  -6.2238  -6.0760  -5.0730
    -5.0608  -5.0582  -4.9312  -4.9107   4.1394   6.8516   6.8560   7.1917
     8.5029   8.5239   9.0780   9.1381   9.5431   9.5693  12.5351  13.3393
    13.3618  14.7629

          k =-0.0500 0.2500 0.0500 (  5093 PWs)   bands (ev):

   -46.0321 -22.4280 -22.2747 -22.2746  -6.9640  -6.1932  -6.0147  -5.0779
    -5.0722  -5.0679  -4.9928  -4.9060   3.7540   6.8192   6.9196   7.1041
     8.2820   8.2949   9.0872   9.2165   9.6226   9.6828  12.5378  13.7033
    13.7346  14.7686

          k =-0.0500 0.3500 0.0500 (  5090 PWs)   bands (ev):

   -46.0317 -22.4456 -22.2740 -22.2740  -6.7796  -6.1738  -5.9439  -5.1086
    -5.0765  -5.0711  -5.0501  -4.9037   3.4460   6.4494   6.9878   7.1268
     8.0870   8.0940   9.0260   9.4657   9.6781  10.0614  12.5394  14.0558
    14.0931  14.3477

          k =-0.0500 0.4500 0.0500 (  5073 PWs)   bands (ev):

   -46.0315 -22.4564 -22.2736 -22.2736  -6.6503  -6.1737  -5.8931  -5.1478
    -5.0811  -5.0723  -5.0706  -4.9037   3.2827   6.1472   7.0300   7.1940
     7.9551   7.9888   8.9864   9.5598   9.7140  10.5202  12.5375  13.6037
    14.2678  14.3163

          k = 0.1500 0.0500 0.1500 (  5079 PWs)   bands (ev):

   -46.0322 -22.3986 -22.2861 -22.2858  -7.0746  -6.1814  -6.0507  -5.0884
    -5.0599  -5.0576  -4.9459  -4.9089   3.9371   6.8185   7.0179   7.3274
     8.2910   8.4786   8.9324   9.2011   9.4273   9.5056  13.0603  13.1622
    13.1812  15.3493

          k =-0.0500 0.2500 0.1500 (  5077 PWs)   bands (ev):

   -46.0319 -22.4275 -22.2852 -22.2743  -6.8915  -6.1644  -6.0035  -5.0910
    -5.0796  -5.0659  -4.9583  -4.9206   3.6145   6.7117   6.9569   7.2624
     8.0399   8.2852   8.8500   9.2384   9.4074   9.8184  12.8444  13.6940
    13.7442  15.0860

          k = 0.2500 0.0500 0.1500 (  5077 PWs)   bands (ev):

   -46.0319 -22.3979 -22.3029 -22.2852  -6.9536  -6.1271  -6.0019  -5.0982
    -5.0695  -5.0577  -4.9767  -4.9099   3.6442   6.8120   7.0550   7.2976
     8.1207   8.2276   8.9033   9.1802   9.4001   9.6290  13.1390  13.4104
    13.4978  15.2948

          k =-0.0500 0.3500 0.1500 (  5080 PWs)   bands (ev):

   -46.0315 -22.4450 -22.2845 -22.2736  -6.7160  -6.1451  -5.9475  -5.1169
    -5.0791  -5.0719  -4.9890  -4.9179   3.3489   6.3978   6.9452   7.2406
     7.8605   8.1096   8.9489   9.2280   9.4750  10.1214  12.8358  14.0262
    14.0915  14.5331

          k = 0.3500 0.0500 0.1500 (  5080 PWs)   bands (ev):

   -46.0315 -22.3972 -22.3199 -22.2846  -6.8328  -6.0579  -5.9577  -5.1122
    -5.0751  -5.0571  -5.0166  -4.9075   3.3963   6.5597   7.0815   7.4013
     7.8914   8.2195   8.6107   9.2204   9.4183   9.9436  13.1162  13.7745
    13.8672  14.4646

          k =-0.0500 0.4500 0.1500 (  5079 PWs)   bands (ev):

   -46.0313 -22.4558 -22.2840 -22.2732  -6.5971  -6.1401  -5.9092  -5.1400
    -5.0788  -5.0771  -4.9992  -4.9211   3.2031   6.1170   6.9341   7.3096
     7.7515   8.0015   9.0496   9.2068   9.5164  10.3565  12.8217  13.9898
    14.2679  14.3264

          k = 0.4500 0.0500 0.1500 (  5079 PWs)   bands (ev):

   -46.0313 -22.3968 -22.3303 -22.2842  -6.7592  -5.9969  -5.9416  -5.1270
    -5.0781  -5.0568  -5.0367  -4.9087   3.2616   6.3005   7.1892   7.4745
     7.8505   8.0770   8.4705   9.2086   9.4520  10.2204  13.0648  13.9661
    14.0181  14.1216

          k = 0.2500 0.0500 0.2500 (  5076 PWs)   bands (ev):

   -46.0315 -22.3973 -22.3024 -22.3020  -6.8573  -6.0794  -5.9469  -5.0967
    -5.0715  -5.0635  -4.9515  -4.9377   3.4366   6.7691   6.9901   7.2957
     7.7890   7.9566   8.9808   9.0309   9.6060   9.6751  13.3333  13.4765
    13.7468  15.1098

          k =-0.0500 0.3500 0.2500 (  5080 PWs)   bands (ev):

   -46.0312 -22.4442 -22.3014 -22.2729  -6.6243  -6.1053  -5.9231  -5.1113
    -5.0897  -5.0698  -4.9560  -4.8996   3.1965   6.3331   6.9626   7.1538
     7.7700   8.0279   8.4875   9.1292   9.4822  10.0352  13.2655  14.0742
    14.1318  14.8210

          k = 0.3500 0.0500 0.2500 (  5080 PWs)   bands (ev):

   -46.0312 -22.3966 -22.3191 -22.3015  -6.7721  -6.0068  -5.8953  -5.1009
    -5.0735  -5.0646  -4.9635  -4.9325   3.2449   6.5645   6.8941   7.2691
     7.6422   7.9420   8.6473   9.1313   9.6054   9.8874  13.3568  13.7888
    14.0166  14.7747

          k =-0.0500 0.4500 0.2500 (  5084 PWs)   bands (ev):

   -46.0310 -22.4549 -22.3009 -22.2725  -6.5338  -6.0849  -5.8916  -5.1250
    -5.0893  -5.0757  -4.9554  -4.8918   3.0763   6.0675   6.9248   7.1504
     7.6996   7.9853   8.5151   9.1740   9.4567  10.0854  13.2529  14.2540
    14.3077  14.7214

          k = 0.4500 0.0500 0.2500 (  5084 PWs)   bands (ev):

   -46.0310 -22.3961 -22.3295 -22.3010  -6.7266  -5.9374  -5.8745  -5.1098
    -5.0755  -5.0679  -4.9562  -4.9381   3.1347   6.3054   6.9827   7.1269
     7.6870   8.0764   8.3199   9.2165   9.5362  10.0255  13.3344  14.0354
    14.2064  14.5599

          k = 0.3500 0.0500 0.3500 (  5079 PWs)   bands (ev):

   -46.0309 -22.3959 -22.3185 -22.3182  -6.7315  -5.9213  -5.8316  -5.0947
    -5.0786  -5.0626  -4.9794  -4.8958   3.0963   6.4875   6.6600   7.1999
     7.3532   7.9930   8.6690   8.8795   9.5691  10.0232  13.6727  13.8355
    14.1927  15.0310

          k =-0.0500 0.4500 0.3500 (  5079 PWs)   bands (ev):

   -46.0306 -22.4540 -22.3177 -22.2719  -6.5035  -6.0253  -5.8227  -5.1149
    -5.0958  -5.0735  -4.9886  -4.8018   2.9535   6.0169   6.6886   7.1478
     7.6802   7.9005   8.3398   8.8677   9.3232  10.0650  13.6426  14.3013
    14.4289  15.2653

          k = 0.4500 0.0500 0.3500 (  5079 PWs)   bands (ev):

   -46.0306 -22.3955 -22.3287 -22.3178  -6.7159  -5.8421  -5.8001  -5.0973
    -5.0768  -5.0699  -4.9910  -4.8670   3.0069   6.2595   6.6768   7.0619
     7.3216   8.1671   8.4291   8.8936   9.3988  10.1737  13.7347  14.0381
    14.3217  15.1088

          k = 0.4500 0.0500 0.4500 (  5100 PWs)   bands (ev):

   -46.0304 -22.3950 -22.3282 -22.3282  -6.7176  -5.7654  -5.7520  -5.0959
    -5.0745  -5.0696  -5.0206  -4.8216   2.9280   6.1368   6.5739   7.0820
     7.0996   8.3205   8.4934   8.6384   9.1725  10.3470  14.0175  14.0494
    14.3932  15.3974

          k =-0.1500 0.2500 0.1500 (  5084 PWs)   bands (ev):

   -46.0317 -22.4271 -22.2849 -22.2847  -6.8205  -6.1424  -5.9974  -5.0996
    -5.0876  -5.0529  -4.9333  -4.9214   3.5352   6.7120   6.7130   7.3128
     7.9707   8.1329   8.7213   9.3252   9.5141   9.7110  13.0358  13.6735
    13.7384  15.1627

          k =-0.1500 0.3500 0.1500 (  5082 PWs)   bands (ev):

   -46.0313 -22.4445 -22.2842 -22.2840  -6.6499  -6.1251  -5.9622  -5.1199
    -5.0845  -5.0391  -4.9550  -4.9188   3.3118   6.4010   6.6273   7.2205
     7.8705   8.0897   8.6110   9.3376   9.5619   9.9805  12.9735  14.0072
    14.0422  14.6916

          k =-0.1500 0.4500 0.1500 (  5084 PWs)   bands (ev):

   -46.0311 -22.4553 -22.2837 -22.2836  -6.5362  -6.1198  -5.9396  -5.1307
    -5.0824  -5.0229  -4.9710  -4.9247   3.1840   6.1201   6.5687   7.2631
     7.8298   8.0457   8.5955   9.3333   9.5917  10.1112  12.9192  14.2209
    14.2241  14.4890

          k = 0.2500 0.1500 0.2500 (  5081 PWs)   bands (ev):

   -46.0313 -22.4081 -22.3020 -22.3016  -6.7643  -6.0844  -5.9560  -5.0987
    -5.0839  -5.0407  -4.9313  -4.9097   3.4196   6.6272   6.7430   7.1294
     7.6048   7.9450   9.0239   9.2538   9.5423   9.6220  13.3735  13.5832
    13.7324  14.9590

          k =-0.1500 0.3500 0.2500 (  5080 PWs)   bands (ev):

   -46.0310 -22.4437 -22.3010 -22.2834  -6.5542  -6.1026  -5.9556  -5.1111
    -5.0853  -5.0196  -4.9281  -4.8844   3.2396   6.3182   6.5440   6.9402
     7.5778   7.9802   8.6099   9.3740   9.5397   9.8274  13.2447  13.9820
    14.0788  14.9464

          k = 0.3500 0.1500 0.2500 (  5080 PWs)   bands (ev):

   -46.0310 -22.4074 -22.3186 -22.3010  -6.6798  -6.0334  -5.9166  -5.0998
    -5.0762  -5.0200  -4.9305  -4.9084   3.2801   6.4982   6.6449   6.8677
     7.4306   7.9358   8.9169   9.2414   9.4924   9.8074  13.3582  13.7825
    13.9987  14.9114

          k =-0.1500 0.4500 0.2500 (  5077 PWs)   bands (ev):

   -46.0308 -22.4544 -22.3005 -22.2830  -6.4604  -6.0898  -5.9450  -5.1145
    -5.0812  -4.9987  -4.9373  -4.8765   3.1415   6.0747   6.4214   6.9343
     7.5705   8.0441   8.4521   9.4147   9.5203   9.8287  13.2272  14.1973
    14.2611  15.0273

          k = 0.4500 0.1500 0.2500 (  5077 PWs)   bands (ev):

   -46.0308 -22.4070 -22.3290 -22.3006  -6.6357  -5.9945  -5.8890  -5.0993
    -5.0691  -5.0009  -4.9322  -4.9147   3.1942   6.2981   6.5729   6.8129
     7.3996   7.9899   8.7492   9.2965   9.3976   9.8861  13.3508  13.9629
    14.2070  14.9283

          k = 0.3500 0.1500 0.3500 (  5081 PWs)   bands (ev):

   -46.0306 -22.4067 -22.3180 -22.3177  -6.6392  -5.9647  -5.8798  -5.0895
    -5.0694  -4.9962  -4.9236  -4.8796   3.1957   6.4431   6.4745   6.6481
     7.0646   7.9181   8.9471   9.1363   9.2994  10.0259  13.5685  13.8490
    14.1456  15.1944

          k =-0.1500 0.4500 0.3500 (  5079 PWs)   bands (ev):

   -46.0304 -22.4536 -22.3173 -22.2823  -6.4235  -6.0620  -5.8937  -5.1031
    -5.0631  -4.9863  -4.9552  -4.7858   3.0863   5.9966   6.4839   6.6108
     7.0918   8.0209   8.5531   9.0966   9.2889  10.0025  13.6034  14.1743
    14.3622  15.5071

          k = 0.4500 0.1500 0.3500 (  5079 PWs)   bands (ev):

   -46.0304 -22.4063 -22.3282 -22.3174  -6.6252  -5.9107  -5.8541  -5.0857
    -5.0575  -4.9807  -4.9346  -4.8526   3.1379   6.2468   6.4713   6.5370
     6.9508   7.9546   8.7989   9.0921   9.1879  10.1626  13.6890  13.9690
    14.2891  15.4229

          k = 0.4500 0.1500 0.4500 (  5073 PWs)   bands (ev):

   -46.0302 -22.4058 -22.3277 -22.3277  -6.6289  -5.8447  -5.8325  -5.0804
    -5.0368  -4.9672  -4.9547  -4.8074   3.0952   6.1242   6.4548   6.5076
     6.6619   7.9788   8.5948   9.0636   9.0705  10.3415  13.9482  13.9989
    14.3673  15.7292

          k =-0.2500 0.3500 0.2500 (  5072 PWs)   bands (ev):

   -46.0306 -22.4430 -22.3004 -22.3002  -6.4533  -6.0984  -5.9863  -5.0951
    -5.0737  -4.9725  -4.8852  -4.8474   3.2979   6.1439   6.3239   6.6448
     7.4276   7.4444   8.7529   9.5262   9.6389   9.7101  13.3118  13.9650
    14.0772  15.1941

          k =-0.2500 0.4500 0.2500 (  5073 PWs)   bands (ev):

   -46.0304 -22.4536 -22.2999 -22.2997  -6.3572  -6.0984  -5.9958  -5.0939
    -5.0647  -4.9307  -4.8912  -4.8326   3.2425   6.0062   6.1023   6.5850
     7.4117   7.4571   8.5319   9.4716   9.6673   9.7614  13.3770  14.1164
    14.2725  15.4707

          k = 0.3500 0.2500 0.3500 (  5057 PWs)   bands (ev):

   -46.0303 -22.4241 -22.3172 -22.3170  -6.4860  -6.0275  -5.9468  -5.0660
    -5.0618  -4.9200  -4.8424  -4.8367   3.3632   6.0911   6.1016   6.4657
     6.9537   7.3174   8.4940   9.5327   9.5859  10.0311  13.5418  13.9571
    14.1449  15.5028

          k =-0.2500 0.4500 0.3500 (  5063 PWs)   bands (ev):

   -46.0301 -22.4528 -22.3166 -22.2991  -6.2981  -6.1123  -5.9824  -5.0774
    -5.0387  -4.9055  -4.8496  -4.7543   3.3313   5.8275   6.1056   6.2688
     6.8447   7.4045   8.0831   9.4803   9.7615   9.9702  13.6741  14.1217
    14.3297  15.8620

          k = 0.4500 0.2500 0.3500 (  5063 PWs)   bands (ev):

   -46.0301 -22.4237 -22.3274 -22.3167  -6.4755  -6.0036  -5.9246  -5.0606
    -5.0468  -4.8728  -4.8380  -4.8147   3.3765   5.9647   6.0759   6.2395
     6.8330   7.3125   8.1428   9.5672   9.5869  10.1561  13.7554  13.9758
    14.2885  15.8341

          k = 0.4500 0.2500 0.4500 (  5070 PWs)   bands (ev):

   -46.0299 -22.4232 -22.3270 -22.3270  -6.4833  -5.9445  -5.9329  -5.0532
    -5.0312  -4.8334  -4.8216  -4.7788   3.4236   5.9254   5.9436   6.1117
     6.6170   7.2804   7.7256   9.6011   9.6066  10.3327  13.9765  14.0428
    14.3527  16.1535

          k =-0.3500 0.4500 0.3500 (  5056 PWs)   bands (ev):

   -46.0297 -22.4521 -22.3160 -22.3158  -6.2100  -6.1360  -6.0371  -5.0536
    -5.0238  -4.8342  -4.7519  -4.7090   3.6277   5.5551   5.8741   6.0448
     6.7035   6.9234   7.3327   9.8462   9.9886  10.0440  13.8894  14.1975
    14.3323  16.2475

          k = 0.4500 0.3500 0.4500 (  5051 PWs)   bands (ev):

   -46.0295 -22.4405 -22.3262 -22.3262  -6.3350  -6.0259  -6.0137  -5.0288
    -5.0259  -4.7539  -4.7083  -4.7043   3.8849   5.5307   5.5325   6.0209
     6.6174   6.7040   6.7836   9.9476   9.9574  10.3242  14.1411  14.2108
    14.3490  16.6006

     the Fermi energy is    10.4104 ev

!    total energy              =    -364.95217544 Ry
     Harris-Foulkes estimate   =    -364.95217544 Ry
     estimated scf accuracy    <          2.1E-09 Ry

     The total energy is the sum of the following terms:

     one-electron contribution =     -83.75313631 Ry
     hartree contribution      =      71.29008882 Ry
     xc contribution           =     -85.83862932 Ry
     ewald contribution        =    -266.65657135 Ry
     smearing contrib. (-TS)   =       0.00607274 Ry

     convergence has been achieved in   7 iterations

     Forces acting on atoms (cartesian axes, Ry/au):

     atom    1 type  1   force =     0.00000000   -0.02131798    0.00000000
     atom    2 type  2   force =     0.00000000    0.05074792    0.00000000
     atom    3 type  3   force =     0.00000000   -0.00673187    0.00000000
     atom    4 type  3   force =     0.00000000   -0.01596620    0.00000000
     atom    5 type  3   force =     0.00000000   -0.00673187    0.00000000

     Total force =     0.018589     Total SCF correction =     0.000113


     Computing stress (Cartesian axis) and pressure

          total   stress  (Ry/bohr**3)                   (kbar)     P=   22.19
   0.00003501   0.00000000   0.00000000          5.15      0.00      0.00
   0.00000000   0.00038255   0.00000000          0.00     56.28      0.00
   0.00000000   0.00000000   0.00003501          0.00      0.00      5.15


     number of scf cycles    =   2
     number of bfgs steps    =   1

     energy   old            =    -364.9515511648 Ry
     energy   new            =    -364.9521754367 Ry

     CASE: energy  _new < energy  _old

     new trust radius        =       0.0292027890 bohr
     new conv_thr            =       0.0000000006 Ry


ATOMIC_POSITIONS (crystal)
Pb       0.000000000   0.000000000   0.000000000    0   0   0
Ti       0.500000000   0.445000000   0.500000000    0   0   0
O        0.500000000   0.497789272   0.000000000
O        0.500000000  -0.007443362   0.500000000
O        0.000000000   0.497789272   0.500000000



     Writing output data file PbTiO3.save/
     NEW-OLD atomic charge density approx. for the potential

     Check: negative core charge=   -0.000006

     total cpu time spent up to now is      814.4 secs

     Self-consistent Calculation

     iteration #  1     ecut=    80.00 Ry     beta= 0.70
     Davidson diagonalization with overlap
     ethr =  1.00E-06,  avg # of iterations =  4.1

     total cpu time spent up to now is      867.2 secs

     total energy              =    -364.95257144 Ry
     Harris-Foulkes estimate   =    -364.95273386 Ry
     estimated scf accuracy    <       0.00024228 Ry

     iteration #  2     ecut=    80.00 Ry     beta= 0.70
     Davidson diagonalization with overlap
     ethr =  5.51E-07,  avg # of iterations =  4.2

     total cpu time spent up to now is      907.6 secs

     total energy              =    -364.95251061 Ry
     Harris-Foulkes estimate   =    -364.95279698 Ry
     estimated scf accuracy    <       0.00074913 Ry

     iteration #  3     ecut=    80.00 Ry     beta= 0.70
     Davidson diagonalization with overlap
     ethr =  5.51E-07,  avg # of iterations =  3.6

     total cpu time spent up to now is      945.3 secs

     total energy              =    -364.95265748 Ry
     Harris-Foulkes estimate   =    -364.95267417 Ry
     estimated scf accuracy    <       0.00005085 Ry

     iteration #  4     ecut=    80.00 Ry     beta= 0.70
     Davidson diagonalization with overlap
     ethr =  1.16E-07,  avg # of iterations =  2.7

     total cpu time spent up to now is      977.0 secs

     total energy              =    -364.95266479 Ry
     Harris-Foulkes estimate   =    -364.95266575 Ry
     estimated scf accuracy    <       0.00000187 Ry

     iteration #  5     ecut=    80.00 Ry     beta= 0.70
     Davidson diagonalization with overlap
     ethr =  4.26E-09,  avg # of iterations =  3.9

     total cpu time spent up to now is     1017.8 secs

     total energy              =    -364.95266539 Ry
     Harris-Foulkes estimate   =    -364.95266569 Ry
     estimated scf accuracy    <       0.00000065 Ry

     iteration #  6     ecut=    80.00 Ry     beta= 0.70
     Davidson diagonalization with overlap
     ethr =  1.48E-09,  avg # of iterations =  3.0

     total cpu time spent up to now is     1052.6 secs

     total energy              =    -364.95266554 Ry
     Harris-Foulkes estimate   =    -364.95266563 Ry
     estimated scf accuracy    <       0.00000029 Ry

     iteration #  7     ecut=    80.00 Ry     beta= 0.70
     Davidson diagonalization with overlap
     ethr =  6.50E-10,  avg # of iterations =  2.2

     total cpu time spent up to now is     1084.8 secs

     total energy              =    -364.95266558 Ry
     Harris-Foulkes estimate   =    -364.95266558 Ry
     estimated scf accuracy    <          1.7E-09 Ry

     iteration #  8     ecut=    80.00 Ry     beta= 0.70
     Davidson diagonalization with overlap
     ethr =  3.86E-12,  avg # of iterations =  4.2

     total cpu time spent up to now is     1135.8 secs

     End of self-consistent calculation

          k = 0.0500 0.0500 0.0500 (  5047 PWs)   bands (ev):

   -46.0649 -22.4102 -22.3083 -22.3082  -7.2283  -6.2403  -6.1196  -5.0670
    -5.0473  -5.0471  -4.9098  -4.8923   4.4484   6.8117   6.8577   7.0059
     8.7190   8.7489   9.1517   9.2426   9.5070   9.5295  12.5080  13.0343
    13.0458  14.7265

          k = 0.0500 0.0500 0.1500 (  5074 PWs)   bands (ev):

   -46.0647 -22.4098 -22.3188 -22.3079  -7.1483  -6.2059  -6.0904  -5.0746
    -5.0552  -5.0467  -4.9396  -4.8918   4.1532   6.8672   6.9408   7.1811
     8.5215   8.7057   9.0869   9.1583   9.3741   9.5143  12.8233  13.0438
    13.0996  14.9313

          k = 0.0500 0.0500 0.2500 (  5093 PWs)   bands (ev):

   -46.0643 -22.4092 -22.3359 -22.3073  -7.0147  -6.1451  -6.0444  -5.0873
    -5.0684  -5.0459  -4.9956  -4.8877   3.7853   6.8766   7.0494   7.2108
     8.4315   8.5222   8.9970   9.0789   9.2929   9.5751  13.0441  13.2809
    13.3982  14.9258

          k = 0.0500 0.0500 0.3500 (  5090 PWs)   bands (ev):

   -46.0640 -22.4085 -22.3528 -22.3066  -6.8753  -6.0738  -6.0026  -5.1053
    -5.0843  -5.0498  -5.0450  -4.8853   3.4962   6.5462   7.2349   7.3734
     8.1696   8.2982   8.9253   8.9977   9.3852   9.9457  13.0439  13.6940
    13.7892  14.2395

          k = 0.0500 0.0500 0.4500 (  5073 PWs)   bands (ev):

   -46.0638 -22.4081 -22.3633 -22.3063  -6.7858  -6.0158  -5.9867  -5.1316
    -5.0958  -5.0704  -5.0446  -4.8851   3.3454   6.2787   7.4324   7.6257
     7.8863   7.9978   8.9053   8.9766   9.4376  10.3857  13.0261  13.5333
    13.9384  14.0603

          k = 0.0500 0.1500 0.1500 (  5079 PWs)   bands (ev):

   -46.0645 -22.4207 -22.3184 -22.3075  -7.0540  -6.1856  -6.0626  -5.0747
    -5.0661  -5.0536  -4.9309  -4.9132   3.9316   6.8224   6.9240   7.3419
     8.3077   8.5314   8.9402   9.2129   9.3355   9.6071  12.8230  13.2815
    13.3269  15.0330

          k = 0.0500 0.1500 0.2500 (  5077 PWs)   bands (ev):

   -46.0641 -22.4200 -22.3354 -22.3068  -6.9248  -6.1324  -6.0241  -5.0905
    -5.0765  -5.0531  -4.9622  -4.9040   3.6373   6.7823   7.0456   7.2814
     8.1825   8.3782   8.8229   9.0691   9.2629   9.7600  13.2467  13.3154
    13.5685  15.0557

          k = 0.0500 0.1500 0.3500 (  5080 PWs)   bands (ev):

   -46.0638 -22.4193 -22.3523 -22.3062  -6.7921  -6.0775  -5.9825  -5.1091
    -5.0865  -5.0527  -4.9887  -4.9010   3.3903   6.5284   7.1647   7.3323
     7.9459   8.2321   8.7661   9.0462   9.2432  10.0011  13.2761  13.6867
    13.9061  14.4057

          k = 0.0500 0.1500 0.4500 (  5079 PWs)   bands (ev):

   -46.0636 -22.4189 -22.3627 -22.3058  -6.7083  -6.0428  -5.9543  -5.1237
    -5.0953  -5.0524  -4.9973  -4.9040   3.2567   6.2808   7.2846   7.4974
     7.7613   7.9847   8.7893   9.1146   9.2128  10.1971  13.2552  13.9074
    13.9423  14.1468

          k = 0.0500 0.2500 0.2500 (  5076 PWs)   bands (ev):

   -46.0638 -22.4375 -22.3346 -22.3062  -6.7774  -6.1160  -5.9814  -5.0945
    -5.0812  -5.0608  -4.9388  -4.9163   3.4128   6.6437   7.0480   7.1838
     7.9635   8.1157   8.5897   9.0714   9.4378   9.9130  13.2602  13.6625
    13.8383  15.0008

          k = 0.0500 0.2500 0.3500 (  5080 PWs)   bands (ev):

   -46.0634 -22.4368 -22.3515 -22.3055  -6.6649  -6.0819  -5.9300  -5.1044
    -5.0854  -5.0621  -4.9490  -4.8946   3.2221   6.4813   6.9469   7.2571
     7.7437   8.0901   8.4984   8.8801   9.5502   9.9169  13.6145  13.6982
    14.0855  14.7063

          k = 0.0500 0.2500 0.4500 (  5084 PWs)   bands (ev):

   -46.0632 -22.4363 -22.3619 -22.3051  -6.5996  -6.0603  -5.8895  -5.1104
    -5.0937  -5.0633  -4.9423  -4.8907   3.1139   6.2723   6.9712   7.2735
     7.6261   8.0980   8.4437   8.8631   9.5779   9.8759  13.6345  13.9008
    14.2778  14.5147

          k = 0.0500 0.3500 0.3500 (  5079 PWs)   bands (ev):

   -46.0631 -22.4541 -22.3507 -22.3049  -6.5594  -6.0538  -5.8701  -5.1033
    -5.0882  -5.0650  -4.9719  -4.8358   3.0593   6.2810   6.7060   7.2340
     7.6587   7.9455   8.3826   8.8429   9.5456   9.9461  13.6379  14.0203
    14.2682  15.0346

          k = 0.0500 0.3500 0.4500 (  5079 PWs)   bands (ev):

   -46.0629 -22.4536 -22.3610 -22.3045  -6.5287  -6.0222  -5.8174  -5.1042
    -5.0922  -5.0680  -4.9799  -4.8012   2.9730   6.1800   6.5658   7.3221
     7.4560   8.1182   8.2940   8.7205   9.3621  10.0074  13.8670  14.0157
    14.4289  15.0754

          k = 0.0500 0.4500 0.4500 (  5100 PWs)   bands (ev):

   -46.0627 -22.4642 -22.3605 -22.3040  -6.5088  -5.9661  -5.7684  -5.1069
    -5.0917  -5.0683  -5.0040  -4.7496   2.8872   5.9826   6.4620   7.2766
     7.4623   8.0353   8.3554   8.6640   9.0488  10.1860  13.8459  14.2472
    14.5318  15.4474

          k = 0.1500 0.1500 0.1500 (  5095 PWs)   bands (ev):

   -46.0643 -22.4203 -22.3181 -22.3179  -6.9795  -6.1604  -6.0400  -5.0828
    -5.0715  -5.0535  -4.9287  -4.9135   3.7838   6.7895   6.8484   7.4478
     8.1588   8.3277   8.8954   9.2778   9.4509   9.4841  13.0445  13.3017
    13.3432  15.5144

          k = 0.1500 0.1500 0.2500 (  5084 PWs)   bands (ev):

   -46.0639 -22.4196 -22.3350 -22.3173  -6.8587  -6.1174  -6.0019  -5.0964
    -5.0733  -5.0502  -4.9451  -4.9041   3.5592   6.7361   6.8417   7.3036
     7.9532   8.1443   8.9468   9.2067   9.3735   9.6740  13.2599  13.4208
    13.5660  15.1331

          k = 0.1500 0.1500 0.3500 (  5082 PWs)   bands (ev):

   -46.0636 -22.4189 -22.3519 -22.3167  -6.7392  -6.0709  -5.9606  -5.1086
    -5.0660  -5.0447  -4.9682  -4.9010   3.3548   6.5247   6.8526   7.1837
     7.7592   8.1879   8.7288   9.2348   9.3818   9.8794  13.2109  13.7318
    13.8996  14.6236

          k = 0.1500 0.1500 0.4500 (  5084 PWs)   bands (ev):

   -46.0634 -22.4185 -22.3623 -22.3163  -6.6668  -6.0404  -5.9323  -5.1134
    -5.0600  -5.0387  -4.9839  -4.9051   3.2393   6.2863   6.8529   7.2228
     7.6682   8.3005   8.4802   9.3113   9.3633   9.9826  13.1492  13.9442
    14.1354  14.3742

          k = 0.1500 0.2500 0.2500 (  5081 PWs)   bands (ev):

   -46.0636 -22.4371 -22.3342 -22.3166  -6.7091  -6.1066  -5.9839  -5.0984
    -5.0831  -5.0368  -4.9202  -4.8988   3.4061   6.5814   6.7033   7.1234
     7.6854   7.9765   8.8543   9.2720   9.4848   9.7671  13.2909  13.6308
    13.7946  14.9460

          k = 0.1500 0.2500 0.3500 (  5080 PWs)   bands (ev):

   -46.0632 -22.4363 -22.3510 -22.3160  -6.6027  -6.0888  -5.9388  -5.1013
    -5.0720  -5.0276  -4.9226  -4.8793   3.2662   6.4501   6.6697   6.8985
     7.3794   8.0249   8.9240   9.0694   9.5532   9.7604  13.4392  13.7224
    14.0323  14.8969

          k = 0.1500 0.2500 0.4500 (  5077 PWs)   bands (ev):

   -46.0630 -22.4359 -22.3614 -22.3156  -6.5423  -6.0815  -5.8991  -5.0998
    -5.0618  -5.0259  -4.9161  -4.8775   3.1812   6.2704   6.6432   6.8213
     7.2812   8.1237   8.7451   9.1521   9.4943   9.7311  13.4642  13.8868
    14.2291  14.9151

          k = 0.1500 0.3500 0.3500 (  5081 PWs)   bands (ev):

   -46.0629 -22.4537 -22.3502 -22.3153  -6.4847  -6.0797  -5.9143  -5.0982
    -5.0655  -5.0062  -4.9301  -4.8205   3.1634   6.2439   6.5791   6.6622
[...]
    -4.8875  -4.8132  -4.6921  -4.5636   3.4011   6.3125   6.3393   6.8450
     7.4237   7.4614   9.0402   9.2098   9.5182   9.6127  13.2556  13.6431
    13.7448  15.2548

          k = 0.2500 0.2500 0.3500 (  5072 PWs)   bands (ev):

   -46.1715 -22.5078 -22.4719 -22.4543  -6.6797  -6.3176  -6.1291  -4.8854
    -4.8698  -4.7811  -4.6518  -4.5527   3.2873   6.1586   6.2059   6.5394
     7.1243   7.4957   8.9858   9.3255   9.4675   9.6265  13.4017  13.6971
    13.9330  15.4473

          k = 0.2500 0.2500 0.4500 (  5073 PWs)   bands (ev):

   -46.1713 -22.5073 -22.4823 -22.4538  -6.6130  -6.2777  -6.1572  -4.8828
    -4.8580  -4.7565  -4.6218  -4.5566   3.2133   6.0345   6.0714   6.4123
     7.0276   7.5692   8.8247   9.3721   9.4022   9.6686  13.4976  13.7760
    14.1131  15.7231

          k = 0.2500 0.3500 0.3500 (  5057 PWs)   bands (ev):

   -46.1712 -22.5248 -22.4711 -22.4536  -6.6308  -6.3243  -6.0330  -4.8755
    -4.8538  -4.7588  -4.6299  -4.5178   3.3450   5.9376   5.9733   6.3830
     6.7481   7.2892   8.7684   9.3694   9.4549   9.8196  13.5021  13.9081
    14.0864  15.6794

          k = 0.2500 0.3500 0.4500 (  5063 PWs)   bands (ev):

   -46.1710 -22.5242 -22.4815 -22.4532  -6.5934  -6.2799  -6.0492  -4.8704
    -4.8396  -4.7382  -4.6016  -4.4986   3.3208   5.7867   5.9125   6.1816
     6.6402   7.3288   8.4735   9.3709   9.4664   9.9334  13.7419  13.8640
    14.2231  16.0642

          k = 0.2500 0.4500 0.4500 (  5070 PWs)   bands (ev):

   -46.1708 -22.5347 -22.4811 -22.4527  -6.5936  -6.2815  -5.9667  -4.8669
    -4.8233  -4.7247  -4.5904  -4.4632   3.3810   5.6928   5.7405   6.0843
     6.4035   7.2756   8.1484   9.3910   9.4822  10.0920  13.8088  14.0638
    14.3190  16.2795

          k = 0.3500 0.3500 0.3500 (  5055 PWs)   bands (ev):

   -46.1708 -22.5240 -22.4705 -22.4704  -6.5025  -6.3405  -6.0763  -4.8462
    -4.8461  -4.6987  -4.5609  -4.4950   3.3888   5.6989   5.7994   6.1501
     6.7659   6.7877   8.2202   9.6470   9.7182   9.8608  13.6738  14.0327
    14.0543  16.0746

          k = 0.3500 0.3500 0.4500 (  5056 PWs)   bands (ev):

   -46.1706 -22.5235 -22.4808 -22.4700  -6.4499  -6.3173  -6.1063  -4.8426
    -4.8269  -4.6555  -4.5250  -4.4793   3.3959   5.5784   5.7604   5.9639
     6.5700   6.8173   7.7892   9.7595   9.7864   9.9454  13.8772  13.9926
    14.1841  16.4851

          k = 0.3500 0.4500 0.4500 (  5051 PWs)   bands (ev):

   -46.1704 -22.5339 -22.4804 -22.4695  -6.4576  -6.3329  -6.0204  -4.8328
    -4.8174  -4.6377  -4.4940  -4.4407   3.5850   5.3880   5.5609   5.8634
     6.3924   6.7059   7.3585   9.7865   9.8957  10.0967  13.9863  14.1399
    14.2710  16.7497

          k = 0.4500 0.4500 0.4500 (  5034 PWs)   bands (ev):

   -46.1702 -22.5334 -22.4799 -22.4799  -6.3754  -6.3593  -6.0516  -4.8172
    -4.8087  -4.5817  -4.4363  -4.4273   3.6918   5.3714   5.4322   5.7513
     6.3908   6.4197   6.7611   9.9646  10.0887  10.1053  14.1517  14.2399
    14.2469  17.1592

          k =-0.0500 0.1500 0.0500 (  5074 PWs)   bands (ev):

   -46.1733 -22.4937 -22.4292 -22.4292  -7.3388  -6.4259  -6.1649  -4.8834
    -4.8830  -4.8477  -4.7942  -4.6084   4.2747   6.6643   6.6853   7.4112
     8.5900   8.6000   9.0095   9.0118   9.2619   9.3444  12.3873  13.1739
    13.2035  14.6245

          k =-0.0500 0.2500 0.0500 (  5093 PWs)   bands (ev):

   -46.1730 -22.5110 -22.4286 -22.4285  -7.2170  -6.3912  -6.1012  -4.8953
    -4.8906  -4.8467  -4.7777  -4.6479   3.9241   6.7180   6.7291   7.1693
     8.3577   8.3733   8.9673   9.0494   9.2915   9.5455  12.3892  13.5650
    13.6038  14.6296

          k =-0.0500 0.3500 0.0500 (  5090 PWs)   bands (ev):

   -46.1726 -22.5282 -22.4279 -22.4279  -7.0943  -6.3548  -6.0333  -4.9070
    -4.8985  -4.8458  -4.7603  -4.6893   3.6359   6.5318   6.7943   6.9457
     8.1628   8.1814   8.9074   9.1469   9.3268  10.0145  12.3904  13.9415
    13.9871  14.2117

          k =-0.0500 0.4500 0.0500 (  5073 PWs)   bands (ev):

   -46.1724 -22.5388 -22.4275 -22.4275  -7.0182  -6.3315  -5.9887  -4.9141
    -4.9034  -4.8451  -4.7492  -4.7159   3.4805   6.2415   6.8348   6.9679
     8.0542   8.0630   8.8681   9.1951   9.3504  10.4629  12.3896  13.5194
    14.1670  14.2284

          k = 0.1500 0.0500 0.1500 (  5079 PWs)   bands (ev):

   -46.1731 -22.4822 -22.4399 -22.4397  -7.2409  -6.4052  -6.1897  -4.9047
    -4.8829  -4.8569  -4.7725  -4.5816   3.9964   6.6446   6.8858   7.3793
     8.3429   8.4023   8.8993   9.0472   9.1331   9.6573  12.8722  12.9631
    13.0282  15.1832

          k =-0.0500 0.2500 0.1500 (  5077 PWs)   bands (ev):

   -46.1728 -22.5105 -22.4391 -22.4282  -7.1396  -6.3810  -6.0886  -4.8970
    -4.8859  -4.8543  -4.7751  -4.6259   3.7719   6.5832   6.7910   7.2853
     8.0600   8.2978   8.7002   9.0775   9.1680   9.7649  12.6800  13.5476
    13.6217  14.9552

          k = 0.2500 0.0500 0.1500 (  5077 PWs)   bands (ev):

   -46.1728 -22.4816 -22.4568 -22.4391  -7.0965  -6.3712  -6.1886  -4.9209
    -4.8811  -4.8540  -4.7506  -4.5866   3.6754   6.6093   6.9255   7.2684
     8.0044   8.3325   8.7714   9.0594   9.1587   9.8302  12.9783  13.2105
    13.3150  15.1951

          k =-0.0500 0.3500 0.1500 (  5080 PWs)   bands (ev):

   -46.1724 -22.5277 -22.4384 -22.4275  -7.0264  -6.3513  -6.0158  -4.9076
    -4.8816  -4.8536  -4.7648  -4.6534   3.5303   6.3825   6.8061   7.0676
     7.9065   8.1502   8.6654   9.1061   9.1690  10.1161  12.6731  13.9127
    13.9996  14.4532

          k = 0.3500 0.0500 0.1500 (  5080 PWs)   bands (ev):

   -46.1724 -22.4811 -22.4736 -22.4385  -6.9431  -6.3333  -6.1970  -4.9313
    -4.8756  -4.8475  -4.7256  -4.6070   3.4120   6.3342   6.9631   7.3152
     7.7222   8.2571   8.5711   9.0807   9.2444  10.1039  12.9913  13.5765
    13.6721  14.9553

          k =-0.0500 0.4500 0.1500 (  5079 PWs)   bands (ev):

   -46.1722 -22.5383 -22.4380 -22.4271  -6.9579  -6.3319  -5.9666  -4.9142
    -4.8789  -4.8532  -4.7581  -4.6711   3.3952   6.1419   6.7902   7.0593
     7.8230   8.0575   8.6859   9.1100   9.1703  10.3873  12.6637  13.9426
    14.1401  14.2349

          k = 0.4500 0.0500 0.1500 (  5079 PWs)   bands (ev):

   -46.1722 -22.4845 -22.4802 -22.4380  -6.8426  -6.3004  -6.2155  -4.9349
    -4.8720  -4.8419  -4.6924  -4.6420   3.2723   6.0732   7.0659   7.3361
     7.6928   7.9508   8.5956   9.0627   9.2934  10.3487  12.9835  13.8111
    13.9269  14.4785

          k = 0.2500 0.0500 0.2500 (  5076 PWs)   bands (ev):

   -46.1724 -22.4810 -22.4562 -22.4560  -6.9583  -6.3374  -6.2027  -4.9231
    -4.8803  -4.8358  -4.7218  -4.5896   3.4049   6.5930   6.8163   7.2239
     7.8647   7.9938   8.7140   8.9728   9.3265   9.9299  13.1879  13.2781
    13.5355  15.3192

          k =-0.0500 0.3500 0.2500 (  5080 PWs)   bands (ev):

   -46.1721 -22.5269 -22.4554 -22.4269  -6.9267  -6.3298  -5.9859  -4.9055
    -4.8704  -4.8582  -4.7653  -4.6003   3.3680   6.2304   6.8792   6.9957
     7.7256   7.8414   8.3885   8.8422   9.4445  10.0773  13.0901  13.9713
    14.0659  14.8291

          k = 0.3500 0.0500 0.2500 (  5080 PWs)   bands (ev):

   -46.1721 -22.4805 -22.4729 -22.4554  -6.8149  -6.3017  -6.2205  -4.9232
    -4.8710  -4.8100  -4.6955  -4.6068   3.1657   6.3466   6.7473   7.2176
     7.6941   8.0135   8.4506   9.0177   9.4340   9.9878  13.2251  13.6042
    13.7907  15.1931

          k =-0.0500 0.4500 0.2500 (  5084 PWs)   bands (ev):

   -46.1719 -22.5374 -22.4549 -22.4264  -6.8772  -6.3101  -5.9270  -4.9119
    -4.8656  -4.8485  -4.7692  -4.6007   3.2617   6.0109   6.8008   6.9970
     7.6717   7.7964   8.3153   8.8583   9.4588  10.1627  13.0804  14.1951
    14.2679  14.5963

          k = 0.4500 0.0500 0.2500 (  5084 PWs)   bands (ev):

   -46.1719 -22.4837 -22.4796 -22.4549  -6.7234  -6.2724  -6.2398  -4.9220
    -4.8636  -4.7849  -4.6707  -4.6373   3.0318   6.0838   6.8266   7.1187
     7.7278   8.0001   8.2861   9.0786   9.4465  10.0180  13.2204  13.8480
    13.9766  15.0026

          k = 0.3500 0.0500 0.3500 (  5079 PWs)   bands (ev):

   -46.1717 -22.4799 -22.4722 -22.4719  -6.6907  -6.2688  -6.2367  -4.9159
    -4.8549  -4.7685  -4.6657  -4.6191   2.9356   6.2716   6.4663   7.2504
     7.6251   7.9049   8.3944   8.8436   9.6959   9.7686  13.5440  13.6502
    13.9404  15.2808

          k =-0.0500 0.4500 0.3500 (  5079 PWs)   bands (ev):

   -46.1715 -22.5365 -22.4718 -22.4258  -6.8252  -6.2490  -5.8869  -4.9105
    -4.8749  -4.8399  -4.7611  -4.5355   3.1371   5.9011   6.5557   7.0330
     7.3690   7.7431   8.2160   8.6326   9.5782  10.0220  13.4655  14.2172
    14.4022  15.1772

          k = 0.4500 0.0500 0.3500 (  5079 PWs)   bands (ev):

   -46.1715 -22.4829 -22.4791 -22.4716  -6.6197  -6.2476  -6.2397  -4.9119
    -4.8403  -4.7289  -4.6518  -4.6393   2.8010   6.0418   6.4756   7.2216
     7.5529   8.0509   8.2361   8.8092   9.5705   9.8377  13.5900  13.8642
    14.0534  15.2631

          k = 0.4500 0.0500 0.4500 (  5100 PWs)   bands (ev):

   -46.1713 -22.4825 -22.4823 -22.4782  -6.5718  -6.2271  -6.2262  -4.9067
    -4.8166  -4.6862  -4.6590  -4.6366   2.6632   5.9193   6.3694   7.3296
     7.3846   8.1559   8.2396   8.6286   9.3079   9.9939  13.8571  13.8795
    14.1135  15.2389

          k =-0.1500 0.2500 0.1500 (  5084 PWs)   bands (ev):

   -46.1726 -22.5101 -22.4388 -22.4386  -7.0610  -6.3727  -6.0857  -4.9012
    -4.8820  -4.8540  -4.7582  -4.6075   3.6677   6.5751   6.5998   7.3085
     7.9120   8.0048   8.7270   9.0952   9.3003   9.7448  12.8644  13.5160
    13.6455  15.2926

          k =-0.1500 0.3500 0.1500 (  5082 PWs)   bands (ev):

   -46.1722 -22.5272 -22.4381 -22.4380  -6.9549  -6.3521  -6.0093  -4.9102
    -4.8671  -4.8487  -4.7523  -4.6263   3.4741   6.3825   6.5147   7.0572
     7.8712   7.8771   8.5913   9.1291   9.3147  10.0163  12.8242  13.8741
    14.0026  14.6807

          k =-0.1500 0.4500 0.1500 (  5084 PWs)   bands (ev):

   -46.1720 -22.5378 -22.4376 -22.4375  -6.8922  -6.3393  -5.9562  -4.9147
    -4.8610  -4.8396  -4.7508  -4.6391   3.3605   6.1371   6.4714   7.0138
     7.8119   7.8901   8.5031   9.1494   9.3116  10.1843  12.7890  14.1037
    14.2215  14.3626

          k = 0.2500 0.1500 0.2500 (  5081 PWs)   bands (ev):

   -46.1722 -22.4915 -22.4558 -22.4556  -6.8955  -6.3395  -6.1701  -4.9096
    -4.8839  -4.8284  -4.7098  -4.5789   3.4098   6.4959   6.6410   6.9421
     7.6815   7.9067   8.9147   9.0285   9.3820   9.7727  13.2734  13.4005
    13.5718  15.3742

          k =-0.1500 0.3500 0.2500 (  5080 PWs)   bands (ev):

   -46.1719 -22.5264 -22.4550 -22.4373  -6.8488  -6.3398  -5.9974  -4.9038
    -4.8719  -4.8250  -4.7315  -4.5818   3.3752   6.2167   6.4727   6.8417
     7.3584   7.7903   8.7174   9.0371   9.4945   9.8640  13.1165  13.9012
    14.0277  15.0195

          k = 0.3500 0.1500 0.2500 (  5080 PWs)   bands (ev):

   -46.1719 -22.4908 -22.4726 -22.4550  -6.7559  -6.3086  -6.1941  -4.9081
    -4.8720  -4.7992  -4.6779  -4.5865   3.2150   6.3139   6.5582   6.7440
     7.4318   7.9719   8.7612   9.1096   9.4757   9.7637  13.3019  13.6190
    13.8218  15.2922

          k =-0.1500 0.4500 0.2500 (  5077 PWs)   bands (ev):

   -46.1717 -22.5369 -22.4545 -22.4369  -6.8019  -6.3305  -5.9363  -4.9064
    -4.8652  -4.8054  -4.7365  -4.5810   3.2958   6.0213   6.3871   6.7324
     7.3350   7.7701   8.6201   9.0685   9.5079   9.8837  13.1015  14.1293
    14.2158  14.9480

          k = 0.4500 0.1500 0.2500 (  5077 PWs)   bands (ev):

   -46.1716 -22.4903 -22.4831 -22.4545  -6.6693  -6.2752  -6.2216  -4.9060
    -4.8633  -4.7733  -4.6475  -4.6110   3.1011   6.0779   6.5175   6.7145
     7.3417   8.0802   8.5852   9.1715   9.4971   9.7291  13.2919  13.8040
    14.0257  15.3149

          k = 0.3500 0.1500 0.3500 (  5081 PWs)   bands (ev):

   -46.1715 -22.4901 -22.4718 -22.4718  -6.6238  -6.2865  -6.2248  -4.8995
    -4.8530  -4.7510  -4.6434  -4.5891   3.0333   6.2598   6.3662   6.5992
     7.1250   7.9444   8.8814   8.9904   9.4826   9.7038  13.5232  13.6873
    13.9440  15.5439

          k =-0.1500 0.4500 0.3500 (  5079 PWs)   bands (ev):

   -46.1713 -22.5360 -22.4714 -22.4363  -6.7440  -6.2809  -5.9165  -4.9000
    -4.8563  -4.7983  -4.7101  -4.5210   3.2252   5.8853   6.3631   6.5325
     6.7673   7.8191   8.7212   8.9006   9.3142   9.9462  13.4729  14.1216
    14.3070  15.4919

          k = 0.4500 0.1500 0.3500 (  5079 PWs)   bands (ev):

   -46.1713 -22.4896 -22.4823 -22.4713  -6.5461  -6.2645  -6.2463  -4.8950
    -4.8374  -4.7077  -4.6241  -4.6035   2.9203   6.0350   6.3946   6.5551
     6.9818   8.0075   8.7544   9.0473   9.2594   9.8238  13.5962  13.8321
    14.0750  15.7706

          k = 0.4500 0.1500 0.4500 (  5073 PWs)   bands (ev):

   -46.1711 -22.4891 -22.4818 -22.4818  -6.4826  -6.2541  -6.2507  -4.8896
    -4.8146  -4.6553  -4.6133  -4.6107   2.8041   5.9105   6.3462   6.6346
     6.7228   8.0236   8.7539   8.9508   9.0062   9.9892  13.8294  13.8619
    14.1385  15.8440

          k =-0.2500 0.3500 0.2500 (  5072 PWs)   bands (ev):

   -46.1715 -22.5256 -22.4544 -22.4542  -6.7286  -6.3469  -6.0144  -4.8888
    -4.8682  -4.7897  -4.6785  -4.5503   3.3704   6.1170   6.1567   6.5733
     7.1387   7.3584   8.9660   9.2757   9.5481   9.6424  13.2493  13.9388
    13.9588  15.3134

          k =-0.2500 0.4500 0.2500 (  5073 PWs)   bands (ev):

   -46.1713 -22.5361 -22.4539 -22.4538  -6.6902  -6.3493  -5.9482  -4.8886
    -4.8581  -4.7678  -4.6744  -4.5430   3.3407   5.9971   6.0279   6.3670
     7.0967   7.3216   8.8398   9.3025   9.5070   9.6969  13.2772  14.1242
    14.1481  15.4376

          k = 0.3500 0.2500 0.3500 (  5057 PWs)   bands (ev):

   -46.1712 -22.5071 -22.4712 -22.4711  -6.5427  -6.3141  -6.1738  -4.8727
    -4.8497  -4.7253  -4.6032  -4.5415   3.2033   6.0406   6.1005   6.2524
     6.8647   7.3158   8.7481   9.4615   9.4862   9.7333  13.5407  13.8171
    13.9885  15.7727

          k =-0.2500 0.4500 0.3500 (  5063 PWs)   bands (ev):

   -46.1710 -22.5352 -22.4707 -22.4532  -6.6129  -6.3276  -5.9590  -4.8732
    -4.8401  -4.7410  -4.6193  -4.4959   3.3702   5.8050   5.8668   6.1861
     6.6110   7.2464   8.5140   9.3862   9.4654   9.9300  13.5747  14.0842
    14.2256  15.9094

          k = 0.4500 0.2500 0.3500 (  5063 PWs)   bands (ev):

   -46.1710 -22.5065 -22.4816 -22.4707  -6.4659  -6.2913  -6.2119  -4.8678
    -4.8329  -4.6811  -4.5752  -4.5420   3.1375   5.9582   6.0338   6.1119
     6.7009   7.3348   8.4333   9.4985   9.5122   9.8320  13.6928  13.8594
    14.1186  16.1421

          k = 0.4500 0.2500 0.4500 (  5070 PWs)   bands (ev):

   -46.1708 -22.5060 -22.4811 -22.4811  -6.3622  -6.2966  -6.2590  -4.8620
    -4.8121  -4.6263  -4.5473  -4.5408   3.0703   5.8812   6.0443   6.0488
     6.4368   7.2986   8.0435   9.5440   9.5447   9.9822  13.8779  13.9238
    14.1677  16.4775

          k =-0.3500 0.4500 0.3500 (  5056 PWs)   bands (ev):

   -46.1706 -22.5344 -22.4700 -22.4699  -6.4934  -6.3564  -5.9975  -4.8439
    -4.8300  -4.6799  -4.5349  -4.4666   3.5099   5.5525   5.6228   5.9865
     6.5468   6.7674   7.8565   9.6730   9.8173   9.9722  13.7905  14.1302
    14.2087  16.3571

          k = 0.4500 0.3500 0.4500 (  5051 PWs)   bands (ev):

   -46.1704 -22.5230 -22.4804 -22.4804  -6.3573  -6.3361  -6.1456  -4.8343
    -4.8099  -4.6002  -4.4786  -4.4702   3.4114   5.5992   5.6483   5.8386
     6.4204   6.6896   7.2767   9.9191   9.9204   9.9833  14.0349  14.0913
    14.1920  16.8748

     the Fermi energy is    10.3928 ev

!    total energy              =    -364.96058295 Ry
     Harris-Foulkes estimate   =    -364.96058295 Ry
     estimated scf accuracy    <          4.6E-11 Ry

     The total energy is the sum of the following terms:

     one-electron contribution =     -86.77601274 Ry
     hartree contribution      =      72.78153652 Ry
     xc contribution           =     -85.88904678 Ry
     ewald contribution        =    -265.08302538 Ry
     smearing contrib. (-TS)   =       0.00596543 Ry

     convergence has been achieved in   8 iterations

     Forces acting on atoms (cartesian axes, Ry/au):

     atom    1 type  1   force =     0.00000000   -0.01523440    0.00000000
     atom    2 type  2   force =     0.00000000    0.01526047    0.00000000
     atom    3 type  3   force =     0.00000000   -0.00000354    0.00000000
     atom    4 type  3   force =     0.00000000   -0.00001898    0.00000000
     atom    5 type  3   force =     0.00000000   -0.00000354    0.00000000

     Total force =     0.000020     Total SCF correction =     0.000000


     Computing stress (Cartesian axis) and pressure

          total   stress  (Ry/bohr**3)                   (kbar)     P=   40.09
   0.00017587   0.00000000   0.00000000         25.87      0.00      0.00
   0.00000000   0.00046585   0.00000000          0.00     68.53      0.00
   0.00000000   0.00000000   0.00017587          0.00      0.00     25.87


     bfgs converged in  26 scf cycles and  25 bfgs steps
     (criteria: energy <  1.0E-04 Ry, force <  1.0E-03 Ry/Bohr)

     End of BFGS Geometry Optimization

     Final energy   =    -364.9605829492 Ry
Begin final coordinates

ATOMIC_POSITIONS (crystal)
Pb       0.000000000   0.000000000   0.000000000    0   0   0
Ti       0.500000000   0.445000000   0.500000000    0   0   0
O        0.500000000   0.390576716   0.000000000
O        0.500000000  -0.101703133   0.500000000
O        0.000000000   0.390576716   0.500000000
End final coordinates



     Writing output data file PbTiO3.save/

     init_run     :     12.15s CPU     16.40s WALL (       1 calls)
     electrons    :   6538.62s CPU   8988.94s WALL (      26 calls)
     update_pot   :      9.71s CPU     10.12s WALL (      25 calls)
     forces       :    138.98s CPU    156.83s WALL (      26 calls)
     stress       :    353.80s CPU    384.26s WALL (      26 calls)

     Called by init_run:
     wfcinit      :      8.87s CPU     12.30s WALL (       1 calls)
     potinit      :      0.29s CPU      0.35s WALL (       1 calls)
     hinit0       :      2.00s CPU      2.01s WALL (       1 calls)

     Called by electrons:
     c_bands      :   5611.00s CPU   7570.26s WALL (     233 calls)
     sum_band     :    734.38s CPU   1159.21s WALL (     233 calls)
     v_of_rho     :     52.67s CPU     56.66s WALL (     256 calls)
     newd         :    154.30s CPU    222.64s WALL (     256 calls)
     mix_rho      :      4.59s CPU      5.29s WALL (     233 calls)

     Called by c_bands:
     init_us_2    :     95.59s CPU    122.00s WALL (   38925 calls)
     cegterg      :   5329.44s CPU   7267.04s WALL (   17475 calls)

     Called by sum_band:
     sum_band:bec :      1.08s CPU      1.49s WALL (   17475 calls)
     addusdens    :    191.67s CPU    254.47s WALL (     233 calls)

     Called by *egterg:
     h_psi        :   2885.24s CPU   4583.55s WALL (   77143 calls)
     s_psi        :    570.58s CPU    625.87s WALL (   77143 calls)
     g_psi        :     51.49s CPU     66.18s WALL (   59593 calls)
     cdiaghg      :    100.10s CPU    134.13s WALL (   74968 calls)

     Called by h_psi:
     h_psi:pot    :   2873.90s CPU   4565.34s WALL (   77143 calls)
     h_psi:calbec :    556.65s CPU    619.39s WALL (   77143 calls)
     vloc_psi     :   1738.24s CPU   3321.28s WALL (   77143 calls)
     add_vuspsi   :    574.00s CPU    618.57s WALL (   77143 calls)

     General routines
     calbec       :    873.07s CPU    962.89s WALL (  104368 calls)
     fft          :     24.08s CPU     26.66s WALL (    3954 calls)
     ffts         :      0.59s CPU      0.88s WALL (     489 calls)
     fftw         :   1803.71s CPU   3466.58s WALL ( 2976994 calls)
     interpolate  :      2.08s CPU      2.63s WALL (     256 calls)

     Parallel routines

     PWSCF        :      1h57m CPU      2h39m WALL


   This run was terminated on:   1: 6:59  14May2020            

=------------------------------------------------------------------------------=
   JOB DONE.
=------------------------------------------------------------------------------=
