
     Program PWSCF v.6.4.1 starts on 28May2020 at  0:17:19 

     This program is part of the open-source Quantum ESPRESSO suite
     for quantum simulation of materials; please cite
         "P. Giannozzi et al., J. Phys.:Condens. Matter 21 395502 (2009);
         "P. Giannozzi et al., J. Phys.:Condens. Matter 29 465901 (2017);
          URL http://www.quantum-espresso.org", 
     in publications or presentations arising from this work. More details at
     http://www.quantum-espresso.org/quote

     Parallel version (MPI & OpenMP), running on       1 processor cores
     Number of MPI processes:                 1
     Threads/MPI process:                     1

     MPI processes distributed on     1 nodes
     Reading input from Al_111_bulk_70.pw.in
Warning: card  &IONS ignored
Warning: card   ION_DYNAMICS = 'BFGS', ignored
Warning: card  / ignored
Warning: card  &CELL ignored
Warning: card  / ignored

     Current dimensions of program PWSCF are:
     Max number of different atomic species (ntypx) = 10
     Max number of k-points (npk) =  40000
     Max angular momentum in pseudopotentials (lmaxx) =  3

     Subspace diagonalization in iterative solution of the eigenvalue problem:
     a serial algorithm will be used

     Found symmetry operation: I + (  0.3333 -0.3333  0.3333)
     This is a supercell, fractional translations are disabled
 
     G-vector sticks info
     --------------------
     sticks:   dense  smooth     PW     G-vecs:    dense   smooth      PW
     Sum         595     595    337                28891    28891   12127
 


     bravais-lattice index     =            4
     lattice parameter (alat)  =       7.6050  a.u.
     unit-cell volume          =     933.0478 (a.u.)^3
     number of atoms/cell      =            3
     number of atomic types    =            1
     number of electrons       =         9.00
     number of Kohn-Sham states=            9
     kinetic-energy cutoff     =      70.0000  Ry
     charge density cutoff     =     150.0000  Ry
     convergence threshold     =      1.0E-08
     mixing beta               =       0.3000
     number of iterations used =            8  local-TF  mixing
     Exchange-correlation      =  SLA  PW   PBE  PBE ( 1  4  3  4 0 0)

     celldm(1)=   7.605000  celldm(2)=   0.000000  celldm(3)=   2.449490
     celldm(4)=   0.000000  celldm(5)=   0.000000  celldm(6)=   0.000000

     crystal axes: (cart. coord. in units of alat)
               a(1) = (   1.000000   0.000000   0.000000 )  
               a(2) = (  -0.500000   0.866025   0.000000 )  
               a(3) = (   0.000000   0.000000   2.449490 )  

     reciprocal axes: (cart. coord. in units 2 pi/alat)
               b(1) = (  1.000000  0.577350  0.000000 )  
               b(2) = (  0.000000  1.154701  0.000000 )  
               b(3) = (  0.000000  0.000000  0.408248 )  


     PseudoPot. # 1 for Al read from file:
     ./Al.pbe-n-van.UPF
     MD5 check sum: b11ded24487aef5bc42d5c7a2e22a7b6
     Pseudo is Ultrasoft + core correction, Zval =  3.0
     Generated by new atomic code, or converted to UPF format
     Using radial grid of  893 points,  2 beta functions with: 
                l(1) =   0
                l(2) =   1
     Q(r) pseudized with  8 coefficients,  rinner =    0.900   0.900   0.900


     atomic species   valence    mass     pseudopotential
        Al             3.00    26.98000     Al( 1.00)

     12 Sym. Ops., with inversion, found



   Cartesian axes

     site n.     atom                  positions (alat units)
         1           Al  tau(   1) = (   0.0000000   0.0000000   0.0000000  )
         2           Al  tau(   2) = (  -0.0000000   0.5773503   0.8164966  )
         3           Al  tau(   3) = (   0.5000000   0.2886751   1.6329932  )

     number of k points=   480  Marzari-Vanderbilt smearing, width (Ry)=  0.0250

     Number of k-points >= 100: set verbosity='high' to print them.

     Dense  grid:    28891 G-vectors     FFT dimensions: (  30,  30,  75)

     Estimated max dynamical RAM per process >     643.27 MB

     Initial potential from superposition of free atoms

     starting charge    8.99260, renormalised to    9.00000
     Starting wfcs are   12 randomized atomic wfcs

     total cpu time spent up to now is       14.9 secs

     Self-consistent Calculation

     iteration #  1     ecut=    70.00 Ry     beta= 0.30
     Davidson diagonalization with overlap
     ethr =  1.00E-02,  avg # of iterations =  2.5

     Threshold (ethr) on eigenvalues was too large:
     Diagonalizing with lowered threshold

     Davidson diagonalization with overlap
     ethr =  1.12E-04,  avg # of iterations =  2.8

     total cpu time spent up to now is       75.9 secs

     total energy              =     -37.02507759 Ry
     Harris-Foulkes estimate   =     -37.02566593 Ry
     estimated scf accuracy    <       0.01023234 Ry

     iteration #  2     ecut=    70.00 Ry     beta= 0.30
     Davidson diagonalization with overlap
     ethr =  1.14E-04,  avg # of iterations =  1.0

     total cpu time spent up to now is       99.0 secs

     total energy              =     -37.02331188 Ry
     Harris-Foulkes estimate   =     -37.02513416 Ry
     estimated scf accuracy    <       0.00688272 Ry

     iteration #  3     ecut=    70.00 Ry     beta= 0.30
     Davidson diagonalization with overlap
     ethr =  7.65E-05,  avg # of iterations =  1.0

     total cpu time spent up to now is      122.1 secs

     total energy              =     -37.02377882 Ry
     Harris-Foulkes estimate   =     -37.02376969 Ry
     estimated scf accuracy    <       0.00001565 Ry

     iteration #  4     ecut=    70.00 Ry     beta= 0.30
     Davidson diagonalization with overlap
     ethr =  1.74E-07,  avg # of iterations =  4.2

     total cpu time spent up to now is      162.1 secs

     total energy              =     -37.02382325 Ry
     Harris-Foulkes estimate   =     -37.02382138 Ry
     estimated scf accuracy    <       0.00000402 Ry

     iteration #  5     ecut=    70.00 Ry     beta= 0.30
     Davidson diagonalization with overlap
     ethr =  4.47E-08,  avg # of iterations =  1.1

     total cpu time spent up to now is      185.3 secs

     total energy              =     -37.02382356 Ry
     Harris-Foulkes estimate   =     -37.02382348 Ry
     estimated scf accuracy    <       0.00000102 Ry

     iteration #  6     ecut=    70.00 Ry     beta= 0.30
     Davidson diagonalization with overlap
     ethr =  1.14E-08,  avg # of iterations =  2.0

     total cpu time spent up to now is      214.2 secs

     total energy              =     -37.02382359 Ry
     Harris-Foulkes estimate   =     -37.02382392 Ry
     estimated scf accuracy    <       0.00000095 Ry

     iteration #  7     ecut=    70.00 Ry     beta= 0.30
     Davidson diagonalization with overlap
     ethr =  1.06E-08,  avg # of iterations =  2.0

     total cpu time spent up to now is      242.9 secs

     total energy              =     -37.02382373 Ry
     Harris-Foulkes estimate   =     -37.02382382 Ry
     estimated scf accuracy    <       0.00000036 Ry

     iteration #  8     ecut=    70.00 Ry     beta= 0.30
     Davidson diagonalization with overlap
     ethr =  3.96E-09,  avg # of iterations =  1.0

     total cpu time spent up to now is      266.0 secs

     total energy              =     -37.02382374 Ry
     Harris-Foulkes estimate   =     -37.02382374 Ry
     estimated scf accuracy    <       0.00000004 Ry

     iteration #  9     ecut=    70.00 Ry     beta= 0.30
     Davidson diagonalization with overlap
     ethr =  4.38E-10,  avg # of iterations =  1.0

     total cpu time spent up to now is      289.1 secs

     End of self-consistent calculation

     Number of k-points >= 100: set verbosity='high' to print the bands.

     the Fermi energy is     0.7133 ev

!    total energy              =     -37.02382374 Ry
     Harris-Foulkes estimate   =     -37.02382374 Ry
     estimated scf accuracy    <          3.6E-09 Ry

     The total energy is the sum of the following terms:

     one-electron contribution =       3.18050273 Ry
     hartree contribution      =       0.36742853 Ry
     xc contribution           =     -29.06113989 Ry
     ewald contribution        =     -11.51001326 Ry
     smearing contrib. (-TS)   =      -0.00060185 Ry

     convergence has been achieved in   9 iterations

     Forces acting on atoms (cartesian axes, Ry/au):

     atom    1 type  1   force =     0.00000000   -0.00000000    0.00000000
     atom    2 type  1   force =     0.00000000    0.00000000   -0.00000000
     atom    3 type  1   force =     0.00000000    0.00000000    0.00000000

     Total force =     0.000000     Total SCF correction =     0.000000
     SCF correction compared to forces is large: reduce conv_thr to get better values


     Computing stress (Cartesian axis) and pressure

          total   stress  (Ry/bohr**3)                   (kbar)     P=  -64.93
  -0.00044118  -0.00000000   0.00000000        -64.90     -0.00      0.00
  -0.00000000  -0.00044118  -0.00000000         -0.00    -64.90     -0.00
   0.00000000   0.00000000  -0.00044189          0.00      0.00    -65.00


     Writing output data file Al_111_bulk.save/
 
     init_run     :     14.54s CPU     14.85s WALL (       1 calls)
     electrons    :    272.50s CPU    274.22s WALL (       1 calls)
     forces       :      2.85s CPU      2.86s WALL (       1 calls)
     stress       :     15.90s CPU     15.95s WALL (       1 calls)

     Called by init_run:
     wfcinit      :     13.91s CPU     14.20s WALL (       1 calls)
     potinit      :      0.04s CPU      0.05s WALL (       1 calls)
     hinit0       :      0.54s CPU      0.56s WALL (       1 calls)

     Called by electrons:
     c_bands      :    226.84s CPU    228.16s WALL (      10 calls)
     sum_band     :     45.06s CPU     45.39s WALL (      10 calls)
     v_of_rho     :      0.36s CPU      0.37s WALL (      10 calls)
     newd         :      0.08s CPU      0.11s WALL (      10 calls)
     mix_rho      :      0.20s CPU      0.22s WALL (      10 calls)

     Called by c_bands:
     init_us_2    :     17.73s CPU     18.00s WALL (   11040 calls)
     cegterg      :    209.65s CPU    210.53s WALL (    4800 calls)

     Called by sum_band:
     sum_band:bec :      0.03s CPU      0.03s WALL (    4800 calls)
     addusdens    :      0.08s CPU      0.11s WALL (      10 calls)

     Called by *egterg:
     h_psi        :    177.95s CPU    178.54s WALL (   14229 calls)
     s_psi        :      4.67s CPU      4.70s WALL (   14229 calls)
     g_psi        :      5.13s CPU      5.15s WALL (    8949 calls)
     cdiaghg      :      2.29s CPU      2.35s WALL (   13269 calls)

     Called by h_psi:
     h_psi:pot    :    176.21s CPU    176.78s WALL (   14229 calls)
     h_psi:calbec :      5.23s CPU      5.25s WALL (   14229 calls)
     vloc_psi     :    166.17s CPU    166.72s WALL (   14229 calls)
     add_vuspsi   :      4.72s CPU      4.75s WALL (   14229 calls)

     General routines
     calbec       :      8.09s CPU      8.13s WALL (   21429 calls)
     fft          :      0.09s CPU      0.10s WALL (     136 calls)
     ffts         :      0.08s CPU      0.08s WALL (     126 calls)
     fftw         :    172.59s CPU    173.16s WALL (  262418 calls)
 
     Parallel routines
 
     PWSCF        :   5m 6.19s CPU   5m15.67s WALL

 
   This run was terminated on:   0:22:35  28May2020            

=------------------------------------------------------------------------------=
   JOB DONE.
=------------------------------------------------------------------------------=
