--------------------------------------------------------------------------
[[2810,1],0]: A high-performance Open MPI point-to-point messaging module
was unable to find any relevant network interfaces:

Module: OpenFabrics (openib)
  Host: ubuntu

Another transport will be used instead, although this may result in
lower performance.
--------------------------------------------------------------------------

     Program PWSCF v.5.1 starts on 26May2020 at 21: 3:18 

     This program is part of the open-source Quantum ESPRESSO suite
     for quantum simulation of materials; please cite
         "P. Giannozzi et al., J. Phys.:Condens. Matter 21 395502 (2009);
          URL http://www.quantum-espresso.org", 
     in publications or presentations arising from this work. More details at
     http://www.quantum-espresso.org/quote

     Parallel version (MPI), running on     1 processors
     Reading input from Al_100_bulk_2.pw.in

     Current dimensions of program PWSCF are:
     Max number of different atomic species (ntypx) = 10
     Max number of k-points (npk) =  40000
     Max angular momentum in pseudopotentials (lmaxx) =  3

     Subspace diagonalization in iterative solution of the eigenvalue problem:
     a serial algorithm will be used

     Found symmetry operation: I + ( -0.5000 -0.5000  0.0000)
     This is a supercell, fractional translations are disabled

     G-vector sticks info
     --------------------
     sticks:   dense  smooth     PW     G-vecs:    dense   smooth      PW
     Sum         681     553    177                54431    39099    6643



     bravais-lattice index     =            6
     lattice parameter (alat)  =       7.6050  a.u.
     unit-cell volume          =    1759.3719 (a.u.)^3
     number of atoms/cell      =            8
     number of atomic types    =            1
     number of electrons       =        24.00
     number of Kohn-Sham states=           16
     kinetic-energy cutoff     =      30.0000  Ry
     charge density cutoff     =     150.0000  Ry
     convergence threshold     =      1.0E-06
     mixing beta               =       0.3000
     number of iterations used =            8  local-TF  mixing
     Exchange-correlation      =  SLA  PW   PBE  PBE ( 1  4  3  4 0)
     nstep                     =           50


     celldm(1)=   7.605000  celldm(2)=   0.000000  celldm(3)=   4.000000
     celldm(4)=   0.000000  celldm(5)=   0.000000  celldm(6)=   0.000000

     crystal axes: (cart. coord. in units of alat)
               a(1) = (   1.000000   0.000000   0.000000 )  
               a(2) = (   0.000000   1.000000   0.000000 )  
               a(3) = (   0.000000   0.000000   4.000000 )  

     reciprocal axes: (cart. coord. in units 2 pi/alat)
               b(1) = (  1.000000  0.000000  0.000000 )  
               b(2) = (  0.000000  1.000000  0.000000 )  
               b(3) = (  0.000000  0.000000  0.250000 )  


     PseudoPot. # 1 for Al read from file:
     ./Al.pbe-n-van.UPF
     MD5 check sum: b11ded24487aef5bc42d5c7a2e22a7b6
     Pseudo is Ultrasoft + core correction, Zval =  3.0
     Generated by new atomic code, or converted to UPF format
     Using radial grid of  893 points,  2 beta functions with: 
                l(1) =   0
                l(2) =   1
     Q(r) pseudized with  8 coefficients,  rinner =    0.900   0.900   0.900


     atomic species   valence    mass     pseudopotential
        Al             3.00    26.98000     Al( 1.00)

      8 Sym. Ops. (no inversion) found



   Cartesian axes

     site n.     atom                  positions (alat units)
         1           Al  tau(   1) = (   0.0000000   0.0000000   0.0000000  )
         2           Al  tau(   2) = (   0.5000000   0.5000000   0.0000000  )
         3           Al  tau(   3) = (   0.5000000   0.0000000   0.5000000  )
         4           Al  tau(   4) = (   0.0000000   0.5000000   0.5000000  )
         5           Al  tau(   5) = (   0.0000000   0.0000000   1.0000000  )
         6           Al  tau(   6) = (   0.5000000   0.5000000   1.0000000  )
         7           Al  tau(   7) = (   0.5000000   0.0000000   1.5000000  )
         8           Al  tau(   8) = (   0.0000000   0.5000000   1.5000000  )

     number of k points=    45  Marzari-Vanderbilt smearing, width (Ry)=  0.0250
                       cart. coord. in units 2pi/alat
        k(    1) = (   0.0000000   0.0000000   0.0000000), wk =   0.0078125
        k(    2) = (   0.0000000   0.0625000   0.0000000), wk =   0.0312500
        k(    3) = (   0.0000000   0.1250000   0.0000000), wk =   0.0312500
        k(    4) = (   0.0000000   0.1875000   0.0000000), wk =   0.0312500
        k(    5) = (   0.0000000   0.2500000   0.0000000), wk =   0.0312500
        k(    6) = (   0.0000000   0.3125000   0.0000000), wk =   0.0312500
        k(    7) = (   0.0000000   0.3750000   0.0000000), wk =   0.0312500
        k(    8) = (   0.0000000   0.4375000   0.0000000), wk =   0.0312500
        k(    9) = (   0.0000000  -0.5000000   0.0000000), wk =   0.0156250
        k(   10) = (   0.0625000   0.0625000   0.0000000), wk =   0.0312500
        k(   11) = (   0.0625000   0.1250000   0.0000000), wk =   0.0625000
        k(   12) = (   0.0625000   0.1875000   0.0000000), wk =   0.0625000
        k(   13) = (   0.0625000   0.2500000   0.0000000), wk =   0.0625000
        k(   14) = (   0.0625000   0.3125000   0.0000000), wk =   0.0625000
        k(   15) = (   0.0625000   0.3750000   0.0000000), wk =   0.0625000
        k(   16) = (   0.0625000   0.4375000   0.0000000), wk =   0.0625000
        k(   17) = (   0.0625000  -0.5000000   0.0000000), wk =   0.0312500
        k(   18) = (   0.1250000   0.1250000   0.0000000), wk =   0.0312500
        k(   19) = (   0.1250000   0.1875000   0.0000000), wk =   0.0625000
        k(   20) = (   0.1250000   0.2500000   0.0000000), wk =   0.0625000
        k(   21) = (   0.1250000   0.3125000   0.0000000), wk =   0.0625000
        k(   22) = (   0.1250000   0.3750000   0.0000000), wk =   0.0625000
        k(   23) = (   0.1250000   0.4375000   0.0000000), wk =   0.0625000
        k(   24) = (   0.1250000  -0.5000000   0.0000000), wk =   0.0312500
        k(   25) = (   0.1875000   0.1875000   0.0000000), wk =   0.0312500
        k(   26) = (   0.1875000   0.2500000   0.0000000), wk =   0.0625000
        k(   27) = (   0.1875000   0.3125000   0.0000000), wk =   0.0625000
        k(   28) = (   0.1875000   0.3750000   0.0000000), wk =   0.0625000
        k(   29) = (   0.1875000   0.4375000   0.0000000), wk =   0.0625000
        k(   30) = (   0.1875000  -0.5000000   0.0000000), wk =   0.0312500
        k(   31) = (   0.2500000   0.2500000   0.0000000), wk =   0.0312500
        k(   32) = (   0.2500000   0.3125000   0.0000000), wk =   0.0625000
        k(   33) = (   0.2500000   0.3750000   0.0000000), wk =   0.0625000
        k(   34) = (   0.2500000   0.4375000   0.0000000), wk =   0.0625000
        k(   35) = (   0.2500000  -0.5000000   0.0000000), wk =   0.0312500
        k(   36) = (   0.3125000   0.3125000   0.0000000), wk =   0.0312500
        k(   37) = (   0.3125000   0.3750000   0.0000000), wk =   0.0625000
        k(   38) = (   0.3125000   0.4375000   0.0000000), wk =   0.0625000
        k(   39) = (   0.3125000  -0.5000000   0.0000000), wk =   0.0312500
        k(   40) = (   0.3750000   0.3750000   0.0000000), wk =   0.0312500
        k(   41) = (   0.3750000   0.4375000   0.0000000), wk =   0.0625000
        k(   42) = (   0.3750000  -0.5000000   0.0000000), wk =   0.0312500
        k(   43) = (   0.4375000   0.4375000   0.0000000), wk =   0.0312500
        k(   44) = (   0.4375000  -0.5000000   0.0000000), wk =   0.0312500
        k(   45) = (  -0.5000000  -0.5000000   0.0000000), wk =   0.0078125

     Dense  grid:    54431 G-vectors     FFT dimensions: (  30,  30, 120)

     Smooth grid:    39099 G-vectors     FFT dimensions: (  27,  27, 108)

     Largest allocated arrays     est. size (Mb)     dimensions
        Kohn-Sham Wavefunctions         1.20 Mb     (    4919,   16)
        NL pseudopotentials             2.40 Mb     (    4919,   32)
        Each V/rho on FFT grid          1.65 Mb     (  108000)
        Each G-vector array             0.42 Mb     (   54431)
        G-vector shells                 0.01 Mb     (     846)
     Largest temporary arrays     est. size (Mb)     dimensions
        Auxiliary wavefunctions         4.80 Mb     (    4919,   64)
        Each subspace H/S matrix        0.06 Mb     (      64,   64)
        Each <psi_i|beta_j> matrix      0.01 Mb     (      32,   16)
        Arrays for rho mixing          13.18 Mb     (  108000,    8)

     Initial potential from superposition of free atoms

     starting charge   23.98028, renormalised to   24.00000
     Starting wfc are   32 randomized atomic wfcs

     total cpu time spent up to now is       10.0 secs

     per-process dynamical memory:    86.5 Mb

     Self-consistent Calculation

     iteration #  1     ecut=    30.00 Ry     beta=0.30
     Davidson diagonalization with overlap
     ethr =  1.00E-02,  avg # of iterations =  2.8

     total cpu time spent up to now is       27.5 secs

     total energy              =     -99.63424307 Ry
     Harris-Foulkes estimate   =     -99.66832580 Ry
     estimated scf accuracy    <       0.57206386 Ry

     iteration #  2     ecut=    30.00 Ry     beta=0.30
     Davidson diagonalization with overlap
     ethr =  2.38E-03,  avg # of iterations =  1.0

     negative rho (up, down):  4.847E-05 0.000E+00

     total cpu time spent up to now is       39.1 secs

     total energy              =     -99.50800960 Ry
     Harris-Foulkes estimate   =     -99.64044413 Ry
     estimated scf accuracy    <       0.42823153 Ry

     iteration #  3     ecut=    30.00 Ry     beta=0.30
     Davidson diagonalization with overlap
     ethr =  1.78E-03,  avg # of iterations =  2.3

     total cpu time spent up to now is       53.3 secs

     total energy              =     -99.56736529 Ry
     Harris-Foulkes estimate   =     -99.60394276 Ry
     estimated scf accuracy    <       0.17284264 Ry

     iteration #  4     ecut=    30.00 Ry     beta=0.30
     Davidson diagonalization with overlap
     ethr =  7.20E-04,  avg # of iterations =  2.0

     total cpu time spent up to now is       65.8 secs

     total energy              =     -99.57947747 Ry
     Harris-Foulkes estimate   =     -99.58363011 Ry
     estimated scf accuracy    <       0.01356494 Ry

     iteration #  5     ecut=    30.00 Ry     beta=0.30
     Davidson diagonalization with overlap
     ethr =  5.65E-05,  avg # of iterations =  3.3

     total cpu time spent up to now is       80.1 secs

     total energy              =     -99.58107644 Ry
     Harris-Foulkes estimate   =     -99.58149947 Ry
     estimated scf accuracy    <       0.01099868 Ry

     iteration #  6     ecut=    30.00 Ry     beta=0.30
     Davidson diagonalization with overlap
     ethr =  4.58E-05,  avg # of iterations =  2.1

     total cpu time spent up to now is       94.4 secs

     total energy              =     -99.57203502 Ry
     Harris-Foulkes estimate   =     -99.58336994 Ry
     estimated scf accuracy    <       0.05173991 Ry

     iteration #  7     ecut=    30.00 Ry     beta=0.30
     Davidson diagonalization with overlap
     ethr =  4.58E-05,  avg # of iterations =  2.8

     total cpu time spent up to now is      109.6 secs

     total energy              =     -99.58018564 Ry
     Harris-Foulkes estimate   =     -99.58051491 Ry
     estimated scf accuracy    <       0.00859488 Ry

     iteration #  8     ecut=    30.00 Ry     beta=0.30
     Davidson diagonalization with overlap
     ethr =  3.58E-05,  avg # of iterations =  1.0

     total cpu time spent up to now is      121.4 secs

     total energy              =     -99.57940115 Ry
     Harris-Foulkes estimate   =     -99.58030923 Ry
     estimated scf accuracy    <       0.00837075 Ry

     iteration #  9     ecut=    30.00 Ry     beta=0.30
     Davidson diagonalization with overlap
     ethr =  3.49E-05,  avg # of iterations =  1.2

     total cpu time spent up to now is      133.5 secs

     total energy              =     -99.57950358 Ry
     Harris-Foulkes estimate   =     -99.57971477 Ry
     estimated scf accuracy    <       0.00144836 Ry

     iteration # 10     ecut=    30.00 Ry     beta=0.30
     Davidson diagonalization with overlap
     ethr =  6.03E-06,  avg # of iterations =  2.3

     total cpu time spent up to now is      146.8 secs

     total energy              =     -99.57965240 Ry
     Harris-Foulkes estimate   =     -99.57965083 Ry
     estimated scf accuracy    <       0.00001262 Ry

     iteration # 11     ecut=    30.00 Ry     beta=0.30
     Davidson diagonalization with overlap
     ethr =  5.26E-08,  avg # of iterations =  3.1

     total cpu time spent up to now is      162.6 secs

     total energy              =     -99.57965897 Ry
     Harris-Foulkes estimate   =     -99.57965778 Ry
     estimated scf accuracy    <       0.00000399 Ry

     iteration # 12     ecut=    30.00 Ry     beta=0.30
     Davidson diagonalization with overlap
     ethr =  1.66E-08,  avg # of iterations =  2.4

     total cpu time spent up to now is      179.8 secs

     total energy              =     -99.57965945 Ry
     Harris-Foulkes estimate   =     -99.57966010 Ry
     estimated scf accuracy    <       0.00000189 Ry

     iteration # 13     ecut=    30.00 Ry     beta=0.30
     Davidson diagonalization with overlap
     ethr =  7.87E-09,  avg # of iterations =  2.4

     total cpu time spent up to now is      194.3 secs

     total energy              =     -99.57965979 Ry
     Harris-Foulkes estimate   =     -99.57966007 Ry
     estimated scf accuracy    <       0.00000164 Ry

     iteration # 14     ecut=    30.00 Ry     beta=0.30
     Davidson diagonalization with overlap
     ethr =  6.84E-09,  avg # of iterations =  1.0

     total cpu time spent up to now is      205.1 secs

     End of self-consistent calculation

          k = 0.0000 0.0000 0.0000 (  4877 PWs)   bands (ev):

    -8.8263  -7.4275  -5.2382  -2.3673  -0.5710  -0.5710  -0.0400   0.7190
     0.7190   0.8023   0.8023   2.2433   2.2433   2.7665   2.7665   3.4589

          k = 0.0000 0.0625 0.0000 (  4917 PWs)   bands (ev):

    -8.7907  -7.3921  -5.2032  -2.3326  -1.1358  -0.5383  -0.0069   0.1718
     0.7517   0.8624   1.4143   2.2071   2.3421   2.7990   2.8212   3.4911

          k = 0.0000 0.1250 0.0000 (  4919 PWs)   bands (ev):

    -8.6836  -7.2859  -5.0981  -2.2284  -2.0354  -0.7025  -0.4398   0.0926
     0.8504   0.9670   1.3906   2.2634   2.6380   2.8974   3.5872   3.8325

          k = 0.0000 0.1875 0.0000 (  4907 PWs)   bands (ev):

    -8.5053  -7.1089  -4.9229  -2.9321  -2.0547  -1.5843  -0.2759   0.2584
     0.5282   1.0143   1.1357   2.5079   3.0607   3.2684   3.7433   3.7546

          k = 0.0000 0.2500 0.0000 (  4893 PWs)   bands (ev):

    -8.2560  -6.8615  -4.6783  -3.7809  -2.4235  -1.8124  -0.2964  -0.0456
     0.4905   1.2439   1.3633   2.5118   2.7462   3.2889   3.9477   4.1584

          k = 0.0000 0.3125 0.0000 (  4899 PWs)   bands (ev):

    -7.9362  -6.5442  -4.5715  -4.3645  -3.2066  -1.5021  -1.0677   0.2494
     0.7876   1.5391   1.5392   1.9019   3.0259   3.4027   3.5836   3.9841

          k = 0.0000 0.3750 0.0000 (  4870 PWs)   bands (ev):

    -7.5461  -6.1572  -5.2995  -3.9816  -3.9282  -1.7795  -1.1236   0.6110
     1.0185   1.1505   1.9004   2.1028   2.7129   3.1175   3.5899   3.9430

          k = 0.0000 0.4375 0.0000 (  4896 PWs)   bands (ev):

    -7.0866  -5.9623  -5.7013  -4.5857  -3.5311  -2.4289  -0.6798   0.3979
     1.0376   1.5768   2.0885   2.3263   2.5209   2.6048   3.3754   3.5308

          k = 0.0000-0.5000 0.0000 (  4918 PWs)   bands (ev):

    -6.5584  -6.5584  -5.1772  -5.1772  -3.0132  -3.0132  -0.1716  -0.1716
     1.5301   1.5301   2.0643   2.0643   2.8180   2.8180   3.0046   3.0046

          k = 0.0625 0.0625 0.0000 (  4915 PWs)   bands (ev):

    -8.7550  -7.3567  -5.1681  -2.2978  -1.1033  -1.1033   0.0264   0.2138
     0.2138   1.4742   1.4742   2.2814   2.2814   2.8700   2.8700   3.5230

          k = 0.0625 0.1250 0.0000 (  4910 PWs)   bands (ev):

    -8.6479  -7.2504  -5.0630  -2.1936  -2.0016  -1.0093  -0.6573   0.1258
     0.3158   1.4282   1.5829   2.3802   2.5201   3.0023   3.6156   3.9055

          k = 0.0625 0.1875 0.0000 (  4908 PWs)   bands (ev):

    -8.4697  -7.0735  -4.8880  -2.8978  -2.0201  -1.5530  -0.8294   0.2915
     0.4721   0.5741   1.7487   2.5304   3.0849   3.3660   3.7526   3.7950

          k = 0.0625 0.2500 0.0000 (  4899 PWs)   bands (ev):

    -8.2204  -6.8262  -4.6433  -3.7463  -2.3897  -1.7778  -0.5986  -0.2634
     0.5234   0.7170   1.9551   2.5017   2.8704   3.3262   3.5755   4.0837

          k = 0.0625 0.3125 0.0000 (  4869 PWs)   bands (ev):

    -7.9006  -6.5089  -4.5368  -4.3296  -3.1722  -1.4675  -1.0338  -0.2996
     0.8205   1.0149   1.7246   2.3504   2.8697   3.1060   3.5658   4.0485

          k = 0.0625 0.3750 0.0000 (  4875 PWs)   bands (ev):

    -7.5107  -6.1221  -5.2647  -3.9471  -3.8936  -1.7453  -1.0900   0.0635
     1.0692   1.1823   1.3775   2.1873   2.6885   3.2452   3.4582   3.4971

          k = 0.0625 0.4375 0.0000 (  4881 PWs)   bands (ev):

    -7.0513  -5.9273  -5.6663  -4.5510  -3.4965  -2.3946  -0.6466   0.3866
     0.5510   1.5633   1.6060   1.8020   2.6631   2.8766   3.1088   3.8793

          k = 0.0625-0.5000 0.0000 (  4898 PWs)   bands (ev):

    -6.5232  -6.5232  -5.1423  -5.1423  -2.9788  -2.9788  -0.1402  -0.1402
     1.0040   1.0040   2.0638   2.0638   2.3482   2.3482   3.5856   3.5856

          k = 0.1250 0.1250 0.0000 (  4909 PWs)   bands (ev):

    -8.5409  -7.1443  -4.9579  -2.0894  -1.9016  -1.9016  -0.5601  -0.5601
     0.2251   1.5264   1.5264   2.6536   2.6536   3.6850   4.0152   4.0153

          k = 0.1250 0.1875 0.0000 (  4904 PWs)   bands (ev):

    -8.3628  -6.9675  -4.7830  -2.7953  -1.9162  -1.7441  -1.4304  -0.3926
     0.3906   0.6632   1.6851   2.8073   3.4887   3.4921   3.8025   4.0165

          k = 0.1250 0.2500 0.0000 (  4892 PWs)   bands (ev):

    -8.1138  -6.7204  -4.5387  -3.6432  -2.2905  -1.6745  -1.4861  -0.1920
    -0.1264   0.6217   1.8858   2.6490   2.7567   3.1234   4.0855   4.1673

          k = 0.1250 0.3125 0.0000 (  4875 PWs)   bands (ev):

    -7.7942  -6.4034  -4.4328  -4.2253  -3.0698  -1.3649  -1.1858  -0.9330
     0.1456   0.9175   1.7872   2.0156   2.3321   3.3395   3.3875   3.9560

          k = 0.1250 0.3750 0.0000 (  4863 PWs)   bands (ev):

    -7.4046  -6.0168  -5.1601  -3.8431  -3.7900  -1.6432  -0.9885  -0.8172
     0.5124   1.1618   1.2754   1.3268   2.6338   2.6552   3.3523   3.7404

          k = 0.1250 0.4375 0.0000 (  4869 PWs)   bands (ev):

    -6.9455  -5.8223  -5.5613  -4.4468  -3.3928  -2.2918  -0.5479  -0.3850
     0.5435   0.6994   0.9435   1.6690   2.0609   2.7591   3.0497   4.0757

          k = 0.1250-0.5000 0.0000 (  4874 PWs)   bands (ev):

    -6.4178  -6.4178  -5.0378  -5.0378  -2.8756  -2.8756  -0.0729  -0.0729
     0.1654   0.1654   1.4323   1.4323   2.2227   2.2227   3.5345   3.5345

          k = 0.1875 0.1875 0.0000 (  4911 PWs)   bands (ev):

    -8.1849  -6.7910  -4.6086  -2.6261  -2.6261  -1.7437  -1.2722  -1.2722
     0.5553   0.8265   0.8265   2.7078   3.5659   3.5659   4.0409   4.0687

          k = 0.1875 0.2500 0.0000 (  4890 PWs)   bands (ev):

    -7.9362  -6.5442  -4.3645  -3.4714  -2.4008  -2.0960  -1.5028  -1.0365
     0.0056   0.7847   1.0510   1.9083   2.8181   3.2373   3.7725   4.2777

          k = 0.1875 0.3125 0.0000 (  4881 PWs)   bands (ev):

    -7.6170  -6.2276  -4.2599  -4.0515  -2.9013  -2.0704  -1.1946  -0.7778
    -0.7181   1.0761   1.1558   1.3133   2.1178   2.4903   3.8399   4.3997

          k = 0.1875 0.3750 0.0000 (  4860 PWs)   bands (ev):

    -7.2278  -5.8413  -4.9861  -3.6697  -3.6181  -1.7001  -1.4736  -0.8210
    -0.3612   0.4621   1.2592   1.4040   1.8310   1.8484   3.4552   3.8493

          k = 0.1875 0.4375 0.0000 (  4874 PWs)   bands (ev):

    -6.7693  -5.6476  -5.3866  -4.2738  -3.2203  -2.1210  -1.2619  -0.4080
    -0.1450   0.0745   0.6942   1.1288   1.8988   2.2121   2.9014   3.2446

          k = 0.1875-0.5000 0.0000 (  4874 PWs)   bands (ev):

    -6.2423  -6.2423  -4.8637  -4.8637  -2.7037  -2.7037  -0.7603  -0.7603
     0.1394   0.1394   0.5741   0.5741   2.3692   2.3692   2.6937   2.6937

          k = 0.2500 0.2500 0.0000 (  4889 PWs)   bands (ev):

    -7.6878  -6.2978  -4.1209  -3.2324  -3.2324  -1.8710  -1.8710  -1.2632
     0.2361   0.2361   1.0100   1.0962   2.4325   3.0291   3.0291   4.3397

          k = 0.2500 0.3125 0.0000 (  4892 PWs)   bands (ev):

    -7.3692  -5.9817  -4.0183  -3.8085  -2.9379  -2.6367  -1.5661  -0.9581
    -0.5288   0.3382   0.5281   1.2708   1.7103   2.3096   3.2688   3.7305

          k = 0.2500 0.3750 0.0000 (  4854 PWs)   bands (ev):

    -6.9807  -5.5962  -4.7430  -3.4274  -3.3801  -2.5365  -1.2418  -1.1872
    -0.6099  -0.3378   0.8553   0.9400   1.6661   1.7028   3.0623   3.3866

          k = 0.2500 0.4375 0.0000 (  4880 PWs)   bands (ev):

    -6.5230  -5.4033  -5.1422  -4.0322  -2.9790  -2.0969  -1.8823  -1.0184
    -0.7534  -0.1323   0.3188   0.8561   1.4690   2.1067   2.4457   3.0624

          k = 0.2500-0.5000 0.0000 (  4878 PWs)   bands (ev):

    -5.9969  -5.9969  -4.6203  -4.6203  -2.4635  -2.4635  -1.5891  -1.5891
    -0.2489  -0.2489   0.3564   0.3564   1.8983   1.8983   2.5734   2.5734

          k = 0.3125 0.3125 0.0000 (  4876 PWs)   bands (ev):

    -7.0513  -5.6662  -3.7091  -3.7091  -3.4966  -2.3429  -2.3429  -0.6774
    -0.4029  -0.2293  -0.2293   0.8763   1.6368   2.5798   2.5798   3.0003

          k = 0.3125 0.3750 0.0000 (  4854 PWs)   bands (ev):

    -6.6637  -5.2818  -4.4311  -3.3444  -3.1168  -3.0460  -1.9684  -1.1489
    -0.9327  -0.2687   0.1304   0.1896   1.9186   1.9750   2.3200   2.8815

          k = 0.3125 0.4375 0.0000 (  4868 PWs)   bands (ev):

    -6.2070  -5.0897  -4.8290  -3.7241  -2.8740  -2.6695  -1.7876  -1.5777
    -1.5250  -0.4454   0.1532   0.5239   1.3378   1.7067   2.3762   3.0597

          k = 0.3125-0.5000 0.0000 (  4870 PWs)   bands (ev):

    -5.6821  -5.6821  -4.3087  -4.3087  -2.3646  -2.3646  -2.1554  -2.1554
    -1.0181  -1.0181   0.5859   0.5859   1.2116   1.2116   2.7993   2.7993

          k = 0.3750 0.3750 0.0000 (  4860 PWs)   bands (ev):

    -6.2772  -4.8986  -4.0516  -4.0516  -2.7383  -2.6825  -2.6825  -1.8539
    -0.5647  -0.5647  -0.5111   0.0852   1.6425   2.2535   2.2535   2.3104

          k = 0.3750 0.4375 0.0000 (  4865 PWs)   bands (ev):

    -5.8218  -4.7077  -4.4474  -3.6170  -3.3207  -2.4989  -2.2924  -2.2389
    -1.2038  -1.1514  -0.1369   0.4504   1.0818   1.6545   2.6207   2.6677

          k = 0.3750-0.5000 0.0000 (  4856 PWs)   bands (ev):

    -5.2982  -5.2982  -3.9308  -3.9308  -3.0773  -3.0773  -1.7807  -1.7807
    -1.7277  -1.7277   0.3237   0.3237   1.1394   1.1394   2.8630   2.8630

          k = 0.4375 0.4375 0.0000 (  4898 PWs)   bands (ev):

    -5.3679  -4.2584  -4.2584  -4.0000  -3.1457  -2.8876  -2.8876  -1.8488
    -1.7959  -0.7671  -0.7671   0.2561   1.0728   2.0561   2.0561   2.7968

          k = 0.4375-0.5000 0.0000 (  4882 PWs)   bands (ev):

    -4.8462  -4.8462  -3.7540  -3.7540  -3.4579  -3.4579  -2.3752  -2.3752
    -1.3392  -1.3392  -0.2714  -0.2714   1.5220   1.5220   2.4894   2.4894

          k =-0.5000-0.5000 0.0000 (  4852 PWs)   bands (ev):

    -4.3271  -4.3271  -4.3271  -4.3271  -2.9557  -2.9557  -2.9557  -2.9557
    -0.8345  -0.8345  -0.8345  -0.8345   1.9901   1.9901   1.9901   1.9901

     the Fermi energy is     1.9269 ev

!    total energy              =     -99.57965953 Ry
     Harris-Foulkes estimate   =     -99.57965985 Ry
     estimated scf accuracy    <       0.00000029 Ry

     The total energy is the sum of the following terms:

     one-electron contribution =    -135.04601397 Ry
     hartree contribution      =      74.17174528 Ry
     xc contribution           =     -79.84160155 Ry
     ewald contribution        =      41.13600798 Ry
     smearing contrib. (-TS)   =       0.00020273 Ry

     convergence has been achieved in  14 iterations

     Forces acting on atoms (Ry/au):

     atom    1 type  1   force =     0.00000000    0.00000000   -0.00549274
     atom    2 type  1   force =     0.00000000    0.00000000   -0.00549276
     atom    3 type  1   force =     0.00000000    0.00000000    0.00132547
     atom    4 type  1   force =     0.00000000    0.00000000    0.00132547
     atom    5 type  1   force =     0.00000000    0.00000000   -0.00132548
     atom    6 type  1   force =     0.00000000    0.00000000   -0.00132548
     atom    7 type  1   force =     0.00000000    0.00000000    0.00549275
     atom    8 type  1   force =     0.00000000    0.00000000    0.00549275

     Total force =     0.011301     Total SCF correction =     0.000860


     entering subroutine stress ...

          total   stress  (Ry/bohr**3)                   (kbar)     P=  -13.18
  -0.00015578   0.00000000   0.00000000        -22.92      0.00      0.00
   0.00000000  -0.00015578   0.00000000          0.00    -22.92      0.00
   0.00000000   0.00000000   0.00004285          0.00      0.00      6.30


     BFGS Geometry Optimization

     number of scf cycles    =   1
     number of bfgs steps    =   0

     energy   new            =     -99.5796595250 Ry

     new trust radius        =       0.0054927608 bohr
     new conv_thr            =       0.0000010000 Ry


ATOMIC_POSITIONS (crystal)
Al       0.000000000   0.000000000  -0.000180563
Al       0.500000000   0.500000000  -0.000180564
Al       0.500000000   0.000000000   0.125043572
Al       0.000000000   0.500000000   0.125043572
Al       0.000000000   0.000000000   0.249956428
Al       0.500000000   0.500000000   0.249956427
Al       0.500000000   0.000000000   0.375180564
Al       0.000000000   0.500000000   0.375180564



     Writing output data file Al_100_2_2.save
     NEW-OLD atomic charge density approx. for the potential

     total cpu time spent up to now is      210.7 secs

     per-process dynamical memory:    92.5 Mb

     Self-consistent Calculation

     iteration #  1     ecut=    30.00 Ry     beta=0.30
     Davidson diagonalization with overlap
     ethr =  1.00E-06,  avg # of iterations =  2.0

     total cpu time spent up to now is      226.0 secs

     total energy              =     -99.57978401 Ry
     Harris-Foulkes estimate   =     -99.57978605 Ry
     estimated scf accuracy    <       0.00003176 Ry

     iteration #  2     ecut=    30.00 Ry     beta=0.30
     Davidson diagonalization with overlap
     ethr =  1.32E-07,  avg # of iterations =  1.6

     total cpu time spent up to now is      237.2 secs

     total energy              =     -99.57977671 Ry
     Harris-Foulkes estimate   =     -99.57978523 Ry
     estimated scf accuracy    <       0.00002409 Ry

     iteration #  3     ecut=    30.00 Ry     beta=0.30
     Davidson diagonalization with overlap
     ethr =  1.00E-07,  avg # of iterations =  2.0

     total cpu time spent up to now is      250.0 secs

     total energy              =     -99.57978074 Ry
     Harris-Foulkes estimate   =     -99.57978413 Ry
     estimated scf accuracy    <       0.00001650 Ry

     iteration #  4     ecut=    30.00 Ry     beta=0.30
     Davidson diagonalization with overlap
     ethr =  6.88E-08,  avg # of iterations =  2.0

     total cpu time spent up to now is      262.5 secs

     End of self-consistent calculation

          k = 0.0000 0.0000 0.0000 (  4877 PWs)   bands (ev):

    -8.8193  -7.4168  -5.2376  -2.3687  -0.5637  -0.5637  -0.0419   0.7309
     0.7309   0.8094   0.8094   2.2534   2.2534   2.7669   2.7669   3.4541

          k = 0.0000 0.0625 0.0000 (  4917 PWs)   bands (ev):

    -8.7836  -7.3814  -5.2026  -2.3339  -1.1286  -0.5310  -0.0088   0.1832
     0.7635   0.8696   1.4216   2.2120   2.3477   2.7994   2.8319   3.4863

          k = 0.0000 0.1250 0.0000 (  4919 PWs)   bands (ev):

    -8.6765  -7.2752  -5.0975  -2.2298  -2.0282  -0.6914  -0.4325   0.0907
     0.8623   0.9741   1.3917   2.2722   2.6460   2.8977   3.5825   3.8416

          k = 0.0000 0.1875 0.0000 (  4907 PWs)   bands (ev):

    -8.4982  -7.0982  -4.9223  -2.9249  -2.0560  -1.5733  -0.2685   0.2566
     0.5291   1.0262   1.1428   2.5175   3.0610   3.2671   3.7388   3.7618

          k = 0.0000 0.2500 0.0000 (  4893 PWs)   bands (ev):

    -8.2489  -6.8509  -4.6778  -3.7738  -2.4126  -1.8137  -0.2957  -0.0383
     0.4887   1.2558   1.3705   2.5105   2.7558   3.2892   3.9438   4.1658

          k = 0.0000 0.3125 0.0000 (  4899 PWs)   bands (ev):

    -7.9291  -6.5335  -4.5644  -4.3640  -3.1957  -1.5034  -1.0670   0.2567
     0.7859   1.5436   1.5511   1.9033   3.0350   3.4101   3.5839   3.9838

          k = 0.0000 0.3750 0.0000 (  4870 PWs)   bands (ev):

    -7.5390  -6.1465  -5.2924  -3.9810  -3.9174  -1.7788  -1.1249   0.6184
     1.0178   1.1488   1.9124   2.1092   2.7203   3.1190   3.5970   3.9433

          k = 0.0000 0.4375 0.0000 (  4896 PWs)   bands (ev):

    -7.0795  -5.9552  -5.6906  -4.5750  -3.5305  -2.4282  -0.6810   0.3968
     1.0450   1.5751   2.0959   2.3383   2.5277   2.6035   3.3874   3.5376

          k = 0.0000-0.5000 0.0000 (  4918 PWs)   bands (ev):

    -6.5513  -6.5513  -5.1664  -5.1664  -3.0126  -3.0126  -0.1728  -0.1728
     1.5374   1.5374   2.0628   2.0628   2.8300   2.8300   3.0114   3.0114

          k = 0.0625 0.0625 0.0000 (  4915 PWs)   bands (ev):

    -8.7479  -7.3460  -5.1675  -2.2992  -1.0961  -1.0961   0.0245   0.2252
     0.2252   1.4814   1.4814   2.2822   2.2822   2.8801   2.8801   3.5182

          k = 0.0625 0.1250 0.0000 (  4910 PWs)   bands (ev):

    -8.6408  -7.2398  -5.0625  -2.1950  -1.9944  -1.0020  -0.6462   0.1239
     0.3272   1.4290   1.5901   2.3808   2.5275   3.0123   3.6110   3.9160

          k = 0.0625 0.1875 0.0000 (  4908 PWs)   bands (ev):

    -8.4626  -7.0629  -4.8874  -2.8907  -2.0215  -1.5420  -0.8221   0.2896
     0.4827   0.5757   1.7559   2.5308   3.0949   3.3649   3.7488   3.8023

          k = 0.0625 0.2500 0.0000 (  4899 PWs)   bands (ev):

    -8.2134  -6.8156  -4.6427  -3.7391  -2.3787  -1.7791  -0.5913  -0.2626
     0.5216   0.7284   1.9621   2.5008   2.8708   3.3363   3.5815   4.0805

          k = 0.0625 0.3125 0.0000 (  4869 PWs)   bands (ev):

    -7.8936  -6.4983  -4.5297  -4.3290  -3.1613  -1.4688  -1.0331  -0.2924
     0.8188   1.0263   1.7245   2.3563   2.8769   3.1066   3.5736   4.0499

          k = 0.0625 0.3750 0.0000 (  4875 PWs)   bands (ev):

    -7.5036  -6.1114  -5.2576  -3.9465  -3.8828  -1.7446  -1.0913   0.0708
     1.0682   1.1806   1.3889   2.1946   2.6953   3.2445   3.4588   3.5088

          k = 0.0625 0.4375 0.0000 (  4881 PWs)   bands (ev):

    -7.0442  -5.9202  -5.6555  -4.5402  -3.4959  -2.3939  -0.6478   0.3884
     0.5554   1.5706   1.6044   1.8132   2.6619   2.8882   3.1158   3.8799

          k = 0.0625-0.5000 0.0000 (  4898 PWs)   bands (ev):

    -6.5161  -6.5161  -5.1316  -5.1316  -2.9781  -2.9781  -0.1413  -0.1413
     1.0111   1.0111   2.0638   2.0638   2.3583   2.3583   3.5926   3.5926

          k = 0.1250 0.1250 0.0000 (  4909 PWs)   bands (ev):

    -8.5339  -7.1336  -4.9573  -2.0907  -1.8944  -1.8944  -0.5489  -0.5489
     0.2233   1.5271   1.5271   2.6608   2.6608   3.6813   4.0257   4.0258

          k = 0.1250 0.1875 0.0000 (  4904 PWs)   bands (ev):

    -8.3558  -6.9569  -4.7825  -2.7882  -1.9176  -1.7367  -1.4196  -0.3814
     0.3888   0.6639   1.6858   2.8143   3.4877   3.4973   3.8097   4.0136

          k = 0.1250 0.2500 0.0000 (  4892 PWs)   bands (ev):

    -8.1067  -6.7097  -4.5381  -3.6361  -2.2796  -1.6758  -1.4789  -0.1858
    -0.1206   0.6199   1.8863   2.6492   2.7639   3.1293   4.0970   4.1626

          k = 0.1250 0.3125 0.0000 (  4875 PWs)   bands (ev):

    -7.7871  -6.3927  -4.4257  -4.2247  -3.0589  -1.3662  -1.1786  -0.9322
     0.1567   0.9157   1.7864   2.0228   2.3327   3.3510   3.3944   3.9559

          k = 0.1250 0.3750 0.0000 (  4863 PWs)   bands (ev):

    -7.3975  -6.0061  -5.1530  -3.8425  -3.7792  -1.6425  -0.9898  -0.8100
     0.5236   1.1607   1.2738   1.3339   2.6345   2.6666   3.3514   3.7475

          k = 0.1250 0.4375 0.0000 (  4869 PWs)   bands (ev):

    -6.9384  -5.8152  -5.5506  -4.4360  -3.3922  -2.2912  -0.5490  -0.3777
     0.5423   0.7065   0.9546   1.6685   2.0711   2.7579   3.0504   4.0764

          k = 0.1250-0.5000 0.0000 (  4874 PWs)   bands (ev):

    -6.4107  -6.4107  -5.0270  -5.0270  -2.8749  -2.8749  -0.0723  -0.0723
     0.1708   0.1708   1.4431   1.4431   2.2217   2.2217   3.5352   3.5352

          k = 0.1875 0.1875 0.0000 (  4911 PWs)   bands (ev):

    -8.1779  -6.7804  -4.6080  -2.6189  -2.6189  -1.7450  -1.2612  -1.2612
     0.5535   0.8272   0.8272   2.7149   3.5660   3.5660   4.0524   4.0750

          k = 0.1875 0.2500 0.0000 (  4890 PWs)   bands (ev):

    -7.9291  -6.5335  -4.3640  -3.4643  -2.3935  -2.0852  -1.5041  -1.0255
     0.0063   0.7830   1.0516   1.9155   2.8174   3.2487   3.7722   4.2847

          k = 0.1875 0.3125 0.0000 (  4881 PWs)   bands (ev):

    -7.6100  -6.2169  -4.2528  -4.0509  -2.8905  -2.0632  -1.1959  -0.7741
    -0.7101   1.0744   1.1629   1.3138   2.1170   2.5016   3.8402   4.3990

          k = 0.1875 0.3750 0.0000 (  4860 PWs)   bands (ev):

    -7.2207  -5.8306  -4.9790  -3.6691  -3.6073  -1.6930  -1.4729  -0.8222
    -0.3502   0.4692   1.2582   1.4034   1.8412   1.8490   3.4547   3.8501

          k = 0.1875 0.4375 0.0000 (  4874 PWs)   bands (ev):

    -6.7622  -5.6405  -5.3758  -4.2630  -3.2196  -2.1203  -1.2547  -0.4077
    -0.1393   0.0856   0.6930   1.1395   1.8978   2.2129   2.9003   3.2454

          k = 0.1875-0.5000 0.0000 (  4874 PWs)   bands (ev):

    -6.2352  -6.2352  -4.8529  -4.8529  -2.7031  -2.7031  -0.7530  -0.7530
     0.1381   0.1381   0.5851   0.5851   2.3679   2.3679   2.6946   2.6946

          k = 0.2500 0.2500 0.0000 (  4889 PWs)   bands (ev):

    -7.6807  -6.2871  -4.1204  -3.2252  -3.2252  -1.8601  -1.8601  -1.2645
     0.2367   0.2367   1.0084   1.1033   2.4438   3.0284   3.0284   4.3389

          k = 0.2500 0.3125 0.0000 (  4892 PWs)   bands (ev):

    -7.3622  -5.9710  -4.0112  -3.8079  -2.9305  -2.6261  -1.5551  -0.9593
    -0.5281   0.3452   0.5287   1.2703   1.7204   2.3087   3.2684   3.7313

          k = 0.2500 0.3750 0.0000 (  4854 PWs)   bands (ev):

    -6.9737  -5.5855  -4.7359  -3.4268  -3.3693  -2.5293  -1.2396  -1.1778
    -0.6098  -0.3320   0.8558   0.9506   1.6653   1.7019   3.0632   3.3869

          k = 0.2500 0.4375 0.0000 (  4880 PWs)   bands (ev):

    -6.5159  -5.3962  -5.1315  -4.0214  -2.9783  -2.0897  -1.8816  -1.0112
    -0.7425  -0.1336   0.3298   0.8551   1.4697   2.1054   2.4466   3.0618

          k = 0.2500-0.5000 0.0000 (  4878 PWs)   bands (ev):

    -5.9898  -5.9898  -4.6096  -4.6096  -2.4628  -2.4628  -1.5819  -1.5819
    -0.2379  -0.2379   0.3552   0.3552   1.8991   1.8991   2.5723   2.5723

          k = 0.3125 0.3125 0.0000 (  4876 PWs)   bands (ev):

    -7.0442  -5.6555  -3.7020  -3.7020  -3.4959  -2.3320  -2.3320  -0.6774
    -0.3971  -0.2286  -0.2286   0.8868   1.6359   2.5790   2.5790   3.0012

          k = 0.3125 0.3750 0.0000 (  4854 PWs)   bands (ev):

    -6.6566  -5.2711  -4.4240  -3.3370  -3.1161  -3.0354  -1.9575  -1.1417
    -0.9321  -0.2700   0.1311   0.2006   1.9177   1.9737   2.3209   2.8812

          k = 0.3125 0.4375 0.0000 (  4868 PWs)   bands (ev):

    -6.1999  -5.0826  -4.8182  -3.7133  -2.8669  -2.6689  -1.7804  -1.5764
    -1.5146  -0.4344   0.1519   0.5243   1.3370   1.7075   2.3751   3.0599

          k = 0.3125-0.5000 0.0000 (  4870 PWs)   bands (ev):

    -5.6750  -5.6750  -4.2980  -4.2980  -2.3574  -2.3574  -2.1548  -2.1548
    -1.0072  -1.0072   0.5849   0.5849   1.2123   1.2123   2.7988   2.7988

          k = 0.3750 0.3750 0.0000 (  4860 PWs)   bands (ev):

    -6.2701  -4.8879  -4.0444  -4.0444  -2.7377  -2.6716  -2.6716  -1.8467
    -0.5640  -0.5640  -0.5002   0.0839   1.6434   2.2528   2.2528   2.3092

          k = 0.3750 0.4375 0.0000 (  4865 PWs)   bands (ev):

    -5.8147  -4.7006  -4.4367  -3.6096  -3.3101  -2.4918  -2.2917  -2.2280
    -1.2032  -1.1405  -0.1362   0.4493   1.0825   1.6536   2.6204   2.6671

          k = 0.3750-0.5000 0.0000 (  4856 PWs)   bands (ev):

    -5.2911  -5.2911  -3.9201  -3.9201  -3.0701  -3.0701  -1.7798  -1.7798
    -1.7170  -1.7170   0.3241   0.3241   1.1387   1.1387   2.8632   2.8632

          k = 0.4375 0.4375 0.0000 (  4898 PWs)   bands (ev):

    -5.3608  -4.2513  -4.2513  -3.9893  -3.1385  -2.8767  -2.8767  -1.8481
    -1.7851  -0.7665  -0.7665   0.2564   1.0721   2.0553   2.0553   2.7970

          k = 0.4375-0.5000 0.0000 (  4882 PWs)   bands (ev):

    -4.8391  -4.8391  -3.7467  -3.7467  -3.4473  -3.4473  -2.3643  -2.3643
    -1.3385  -1.3385  -0.2707  -0.2707   1.5211   1.5211   2.4891   2.4891

          k =-0.5000-0.5000 0.0000 (  4852 PWs)   bands (ev):

    -4.3200  -4.3200  -4.3200  -4.3200  -2.9449  -2.9449  -2.9449  -2.9449
    -0.8338  -0.8338  -0.8338  -0.8338   1.9893   1.9893   1.9893   1.9893

     the Fermi energy is     1.9297 ev

!    total energy              =     -99.57978238 Ry
     Harris-Foulkes estimate   =     -99.57978241 Ry
     estimated scf accuracy    <       0.00000015 Ry

     The total energy is the sum of the following terms:

     one-electron contribution =    -134.81753325 Ry
     hartree contribution      =      74.05523656 Ry
     xc contribution           =     -79.83857390 Ry
     ewald contribution        =      41.02088236 Ry
     smearing contrib. (-TS)   =       0.00020584 Ry

     convergence has been achieved in   4 iterations

     Forces acting on atoms (Ry/au):

     atom    1 type  1   force =     0.00000000    0.00000000   -0.00513104
     atom    2 type  1   force =     0.00000000    0.00000000   -0.00513097
     atom    3 type  1   force =     0.00000000    0.00000000    0.00085113
     atom    4 type  1   force =     0.00000000    0.00000000    0.00085113
     atom    5 type  1   force =     0.00000000    0.00000000   -0.00085117
     atom    6 type  1   force =     0.00000000    0.00000000   -0.00085112
     atom    7 type  1   force =     0.00000000    0.00000000    0.00513101
     atom    8 type  1   force =     0.00000000    0.00000000    0.00513101

     Total force =     0.010402     Total SCF correction =     0.000264


     entering subroutine stress ...

          total   stress  (Ry/bohr**3)                   (kbar)     P=  -13.44
  -0.00015686   0.00000000   0.00000000        -23.08      0.00      0.00
   0.00000000  -0.00015686   0.00000000          0.00    -23.08      0.00
   0.00000000   0.00000000   0.00003961          0.00      0.00      5.83


     number of scf cycles    =   2
     number of bfgs steps    =   1

     energy   old            =     -99.5796595250 Ry
     energy   new            =     -99.5797823830 Ry

     CASE: energy  _new < energy  _old


     WARNING: bfgs curvature condition failed, Theta= 0.871
     new trust radius        =       0.0060420369 bohr
     new conv_thr            =       0.0000000123 Ry


ATOMIC_POSITIONS (crystal)
Al       0.000000000   0.000000000  -0.000379184
Al       0.500000000   0.500000000  -0.000379183
Al       0.500000000   0.000000000   0.125080579
Al       0.000000000   0.500000000   0.125080579
Al       0.000000000   0.000000000   0.249919420
Al       0.500000000   0.500000000   0.249919421
Al       0.500000000   0.000000000   0.375379184
Al       0.000000000   0.500000000   0.375379184



     Writing output data file Al_100_2_2.save
     NEW-OLD atomic charge density approx. for the potential

     total cpu time spent up to now is      267.6 secs

     per-process dynamical memory:    92.5 Mb

     Self-consistent Calculation

     iteration #  1     ecut=    30.00 Ry     beta=0.30
     Davidson diagonalization with overlap
     ethr =  1.00E-06,  avg # of iterations =  2.0

     Threshold (ethr) on eigenvalues was too large:
     Diagonalizing with lowered threshold

     Davidson diagonalization with overlap
     ethr =  1.88E-08,  avg # of iterations =  3.0

     total cpu time spent up to now is      296.6 secs

     total energy              =     -99.57990517 Ry
     Harris-Foulkes estimate   =     -99.57990579 Ry
     estimated scf accuracy    <       0.00000729 Ry

     iteration #  2     ecut=    30.00 Ry     beta=0.30
     Davidson diagonalization with overlap
     ethr =  3.04E-08,  avg # of iterations =  1.0

     total cpu time spent up to now is      307.6 secs

     total energy              =     -99.57990358 Ry
     Harris-Foulkes estimate   =     -99.57990523 Ry
     estimated scf accuracy    <       0.00000460 Ry

     iteration #  3     ecut=    30.00 Ry     beta=0.30
     Davidson diagonalization with overlap
     ethr =  1.91E-08,  avg # of iterations =  2.0

     total cpu time spent up to now is      321.6 secs

     total energy              =     -99.57990450 Ry
     Harris-Foulkes estimate   =     -99.57990462 Ry
     estimated scf accuracy    <       0.00000091 Ry

     iteration #  4     ecut=    30.00 Ry     beta=0.30
     Davidson diagonalization with overlap
     ethr =  3.78E-09,  avg # of iterations =  1.0

     total cpu time spent up to now is      332.9 secs

     total energy              =     -99.57990454 Ry
     Harris-Foulkes estimate   =     -99.57990454 Ry
     estimated scf accuracy    <       0.00000027 Ry

     iteration #  5     ecut=    30.00 Ry     beta=0.30
     Davidson diagonalization with overlap
     ethr =  1.12E-09,  avg # of iterations =  1.0

     total cpu time spent up to now is      347.0 secs

     total energy              =     -99.57990452 Ry
     Harris-Foulkes estimate   =     -99.57990454 Ry
     estimated scf accuracy    <       0.00000023 Ry

     iteration #  6     ecut=    30.00 Ry     beta=0.30
     Davidson diagonalization with overlap
     ethr =  9.67E-10,  avg # of iterations =  1.6

     total cpu time spent up to now is      358.8 secs

     total energy              =     -99.57990453 Ry
     Harris-Foulkes estimate   =     -99.57990453 Ry
     estimated scf accuracy    <       0.00000003 Ry

     iteration #  7     ecut=    30.00 Ry     beta=0.30
     Davidson diagonalization with overlap
     ethr =  1.27E-10,  avg # of iterations =  2.4

     total cpu time spent up to now is      370.9 secs

     End of self-consistent calculation

          k = 0.0000 0.0000 0.0000 (  4877 PWs)   bands (ev):

    -8.8153  -7.4096  -5.2403  -2.3734  -0.5594  -0.5594  -0.0468   0.7394
     0.7394   0.8134   0.8134   2.2601   2.2601   2.7641   2.7641   3.4465

          k = 0.0000 0.0625 0.0000 (  4917 PWs)   bands (ev):

    -8.7796  -7.3742  -5.2052  -2.3386  -1.1245  -0.5267  -0.0137   0.1912
     0.7720   0.8737   1.4258   2.2133   2.3502   2.7966   2.8391   3.4787

          k = 0.0000 0.1250 0.0000 (  4919 PWs)   bands (ev):

    -8.6725  -7.2679  -5.1002  -2.2345  -2.0241  -0.6836  -0.4283   0.0858
     0.8708   0.9781   1.3896   2.2776   2.6507   2.8949   3.5749   3.8470

          k = 0.0000 0.1875 0.0000 (  4907 PWs)   bands (ev):

    -8.4942  -7.0910  -4.9249  -2.9209  -2.0607  -1.5657  -0.2643   0.2517
     0.5268   1.0348   1.1469   2.5238   3.0582   3.2626   3.7315   3.7659

          k = 0.0000 0.2500 0.0000 (  4893 PWs)   bands (ev):

    -8.2449  -6.8436  -4.6804  -3.7698  -2.4051  -1.8184  -0.2980  -0.0340
     0.4838   1.2644   1.3745   2.5058   2.7621   3.2864   3.9370   4.1702

          k = 0.0000 0.3125 0.0000 (  4899 PWs)   bands (ev):

    -7.9251  -6.5262  -4.5603  -4.3666  -3.1883  -1.5080  -1.0694   0.2610
     0.7811   1.5449   1.5597   1.9014   3.0408   3.4144   3.5811   3.9805

          k = 0.0000 0.3750 0.0000 (  4870 PWs)   bands (ev):

    -7.5350  -6.1392  -5.2884  -3.9836  -3.9100  -1.7813  -1.1295   0.6227
     1.0139   1.1441   1.9210   2.1125   2.7246   3.1175   3.6008   3.9404

          k = 0.0000 0.4375 0.0000 (  4896 PWs)   bands (ev):

    -7.0755  -5.9512  -5.6833  -4.5676  -3.5331  -2.4307  -0.6856   0.3925
     1.0493   1.5705   2.1002   2.3469   2.5314   2.5992   3.3961   3.5413

          k = 0.0000-0.5000 0.0000 (  4918 PWs)   bands (ev):

    -6.5473  -6.5473  -5.1591  -5.1591  -3.0151  -3.0151  -0.1772  -0.1772
     1.5417   1.5417   2.0582   2.0582   2.8386   2.8386   3.0153   3.0153

          k = 0.0625 0.0625 0.0000 (  4915 PWs)   bands (ev):

    -8.7439  -7.3387  -5.1702  -2.3039  -1.0919  -1.0919   0.0196   0.2333
     0.2333   1.4856   1.4856   2.2799   2.2799   2.8868   2.8868   3.5106

          k = 0.0625 0.1250 0.0000 (  4910 PWs)   bands (ev):

    -8.6368  -7.2325  -5.0651  -2.1997  -1.9903  -0.9977  -0.6385   0.1191
     0.3353   1.4267   1.5943   2.3782   2.5318   3.0189   3.6036   3.9229

          k = 0.0625 0.1875 0.0000 (  4908 PWs)   bands (ev):

    -8.4586  -7.0556  -4.8900  -2.8866  -2.0262  -1.5344  -0.8179   0.2848
     0.4899   0.5742   1.7601   2.5281   3.1016   3.3605   3.7421   3.8065

          k = 0.0625 0.2500 0.0000 (  4899 PWs)   bands (ev):

    -8.2094  -6.8083  -4.6453  -3.7351  -2.3712  -1.7837  -0.5871  -0.2649
     0.5168   0.7364   1.9660   2.4967   2.8679   3.3429   3.5846   4.0744

          k = 0.0625 0.3125 0.0000 (  4869 PWs)   bands (ev):

    -7.8896  -6.4910  -4.5256  -4.3316  -3.1539  -1.4735  -1.0355  -0.2882
     0.8140   1.0344   1.7211   2.3592   2.8811   3.1040   3.5782   4.0479

          k = 0.0625 0.3750 0.0000 (  4875 PWs)   bands (ev):

    -7.4996  -6.1041  -5.2535  -3.9491  -3.8754  -1.7471  -1.0958   0.0750
     1.0640   1.1759   1.3970   2.1988   2.6991   3.2408   3.4562   3.5171

          k = 0.0625 0.4375 0.0000 (  4881 PWs)   bands (ev):

    -7.0402  -5.9162  -5.6482  -4.5328  -3.4985  -2.3964  -0.6523   0.3867
     0.5568   1.5748   1.5998   1.8212   2.6578   2.8964   3.1197   3.8773

          k = 0.0625-0.5000 0.0000 (  4898 PWs)   bands (ev):

    -6.5121  -6.5121  -5.1242  -5.1242  -2.9807  -2.9807  -0.1457  -0.1457
     1.0152   1.0152   2.0606   2.0606   2.3651   2.3651   3.5965   3.5965

          k = 0.1250 0.1250 0.0000 (  4909 PWs)   bands (ev):

    -8.5299  -7.1263  -4.9599  -2.0954  -1.8903  -1.8903  -0.5411  -0.5411
     0.2184   1.5247   1.5247   2.6649   2.6649   3.6746   4.0328   4.0328

          k = 0.1250 0.1875 0.0000 (  4904 PWs)   bands (ev):

    -8.3518  -6.9496  -4.7851  -2.7841  -1.9222  -1.7325  -1.4121  -0.3736
     0.3839   0.6614   1.6833   2.8183   3.4835   3.4996   3.8140   4.0078

          k = 0.1250 0.2500 0.0000 (  4892 PWs)   bands (ev):

    -8.1027  -6.7025  -4.5407  -3.6320  -2.2721  -1.6804  -1.4748  -0.1837
    -0.1174   0.6151   1.8837   2.6462   2.7680   3.1322   4.1052   4.1548

          k = 0.1250 0.3125 0.0000 (  4875 PWs)   bands (ev):

    -7.7831  -6.3854  -4.4217  -4.2273  -3.0514  -1.3708  -1.1744  -0.9346
     0.1644   0.9110   1.7824   2.0269   2.3299   3.3591   3.3982   3.9529

          k = 0.1250 0.3750 0.0000 (  4863 PWs)   bands (ev):

    -7.3935  -5.9988  -5.1489  -3.8451  -3.7718  -1.6450  -0.9943  -0.8058
     0.5313   1.1563   1.2691   1.3381   2.6320   2.6746   3.3474   3.7515

          k = 0.1250 0.4375 0.0000 (  4869 PWs)   bands (ev):

    -6.9344  -5.8112  -5.5433  -4.4287  -3.3947  -2.2937  -0.5535  -0.3735
     0.5378   0.7106   0.9624   1.6650   2.0779   2.7537   3.0479   4.0740

          k = 0.1250-0.5000 0.0000 (  4874 PWs)   bands (ev):

    -6.4067  -6.4067  -5.0197  -5.0197  -2.8775  -2.8775  -0.0751  -0.0751
     0.1732   0.1732   1.4506   1.4506   2.2177   2.2177   3.5328   3.5328

          k = 0.1875 0.1875 0.0000 (  4911 PWs)   bands (ev):

    -8.1739  -6.7731  -4.6106  -2.6148  -2.6148  -1.7497  -1.2535  -1.2535
     0.5487   0.8247   0.8247   2.7190   3.5628   3.5628   4.0605   4.0783

          k = 0.1875 0.2500 0.0000 (  4890 PWs)   bands (ev):

    -7.9251  -6.5262  -4.3666  -3.4602  -2.3892  -2.0779  -1.5087  -1.0178
     0.0037   0.7782   1.0491   1.9196   2.8133   3.2568   3.7686   4.2886

          k = 0.1875 0.3125 0.0000 (  4881 PWs)   bands (ev):

    -7.6060  -6.2096  -4.2487  -4.0535  -2.8831  -2.0591  -1.2004  -0.7743
    -0.7048   1.0698   1.1670   1.3111   2.1129   2.5095   3.8375   4.3952

          k = 0.1875 0.3750 0.0000 (  4860 PWs)   bands (ev):

    -7.2167  -5.8233  -4.9750  -3.6716  -3.5999  -1.6888  -1.4754  -0.8267
    -0.3426   0.4732   1.2540   1.3998   1.8463   1.8480   3.4512   3.8478

          k = 0.1875 0.4375 0.0000 (  4874 PWs)   bands (ev):

    -6.7582  -5.6364  -5.3685  -4.2556  -3.2222  -2.1228  -1.2505  -0.4108
    -0.1367   0.0932   0.6885   1.1468   1.8938   2.2104   2.8963   3.2430

          k = 0.1875-0.5000 0.0000 (  4874 PWs)   bands (ev):

    -6.2312  -6.2312  -4.8456  -4.8456  -2.7056  -2.7056  -0.7489  -0.7489
     0.1335   0.1335   0.5928   0.5928   2.3637   2.3637   2.6921   2.6921

          k = 0.2500 0.2500 0.0000 (  4889 PWs)   bands (ev):

    -7.6767  -6.2798  -4.1229  -3.2212  -3.2212  -1.8525  -1.8525  -1.2690
     0.2342   0.2342   1.0037   1.1074   2.4517   3.0244   3.0244   4.3351

          k = 0.2500 0.3125 0.0000 (  4892 PWs)   bands (ev):

    -7.3581  -5.9637  -4.0071  -3.8105  -2.9263  -2.6188  -1.5475  -0.9638
    -0.5306   0.3492   0.5262   1.2667   1.7272   2.3045   3.2649   3.7290

          k = 0.2500 0.3750 0.0000 (  4854 PWs)   bands (ev):

    -6.9696  -5.5782  -4.7319  -3.4294  -3.3619  -2.5252  -1.2410  -1.1713
    -0.6130  -0.3293   0.8531   0.9578   1.6612   1.6979   3.0608   3.3841

          k = 0.2500 0.4375 0.0000 (  4880 PWs)   bands (ev):

    -6.5119  -5.3922  -5.1241  -4.0140  -2.9809  -2.0856  -1.8841  -1.0070
    -0.7349  -0.1382   0.3374   0.8509   1.4670   2.1011   2.4442   3.0583

          k = 0.2500-0.5000 0.0000 (  4878 PWs)   bands (ev):

    -5.9858  -5.9858  -4.6022  -4.6022  -2.4653  -2.4653  -1.5778  -1.5778
    -0.2303  -0.2303   0.3506   0.3506   1.8967   1.8967   2.5682   2.5682

          k = 0.3125 0.3125 0.0000 (  4876 PWs)   bands (ev):

    -7.0402  -5.6482  -3.6979  -3.6979  -3.4985  -2.3245  -2.3245  -0.6806
    -0.3943  -0.2311  -0.2311   0.8940   1.6319   2.5750   2.5750   2.9989

          k = 0.3125 0.3750 0.0000 (  4854 PWs)   bands (ev):

    -6.6526  -5.2637  -4.4199  -3.3328  -3.1187  -3.0282  -1.9500  -1.1375
    -0.9346  -0.2747   0.1286   0.2081   1.9135   1.9694   2.3185   2.8776

          k = 0.3125 0.4375 0.0000 (  4868 PWs)   bands (ev):

    -6.1959  -5.0786  -4.8109  -3.7059  -2.8628  -2.6714  -1.7763  -1.5785
    -1.5075  -0.4268   0.1473   0.5216   1.3329   1.7051   2.3710   3.0571

          k = 0.3125-0.5000 0.0000 (  4870 PWs)   bands (ev):

    -5.6710  -5.6710  -4.2906  -4.2906  -2.3533  -2.3533  -2.1573  -2.1573
    -0.9997  -0.9997   0.5806   0.5806   1.2096   1.2096   2.7952   2.7952

          k = 0.3750 0.3750 0.0000 (  4860 PWs)   bands (ev):

    -6.2661  -4.8806  -4.0404  -4.0404  -2.7402  -2.6642  -2.6642  -1.8426
    -0.5665  -0.5665  -0.4926   0.0793   1.6410   2.2488   2.2488   2.3051

          k = 0.3750 0.4375 0.0000 (  4865 PWs)   bands (ev):

    -5.8107  -4.6965  -4.4293  -3.6054  -3.3029  -2.4877  -2.2942  -2.2205
    -1.2057  -1.1330  -0.1388   0.4451   1.0798   1.6494   2.6168   2.6635

          k = 0.3750-0.5000 0.0000 (  4856 PWs)   bands (ev):

    -5.2870  -5.2870  -3.9127  -3.9127  -3.0661  -3.0661  -1.7823  -1.7823
    -1.7096  -1.7096   0.3213   0.3213   1.1345   1.1345   2.8604   2.8604

          k = 0.4375 0.4375 0.0000 (  4898 PWs)   bands (ev):

    -5.3568  -4.2472  -4.2472  -3.9819  -3.1344  -2.8693  -2.8693  -1.8506
    -1.7776  -0.7690  -0.7690   0.2537   1.0679   2.0513   2.0513   2.7942

          k = 0.4375-0.5000 0.0000 (  4882 PWs)   bands (ev):

    -4.8350  -4.8350  -3.7424  -3.7424  -3.4401  -3.4401  -2.3568  -2.3568
    -1.3410  -1.3410  -0.2732  -0.2732   1.5169   1.5169   2.4855   2.4855

          k =-0.5000-0.5000 0.0000 (  4852 PWs)   bands (ev):

    -4.3160  -4.3160  -4.3160  -4.3160  -2.9375  -2.9375  -2.9375  -2.9375
    -0.8363  -0.8363  -0.8363  -0.8363   1.9853   1.9853   1.9853   1.9853

     the Fermi energy is     1.9294 ev

!    total energy              =     -99.57990450 Ry
     Harris-Foulkes estimate   =     -99.57990453 Ry
     estimated scf accuracy    <          6.6E-09 Ry

     The total energy is the sum of the following terms:

     one-electron contribution =    -134.56964305 Ry
     hartree contribution      =      73.93331802 Ry
     xc contribution           =     -79.83554635 Ry
     ewald contribution        =      40.89175710 Ry
     smearing contrib. (-TS)   =       0.00020978 Ry

     convergence has been achieved in   7 iterations

     Forces acting on atoms (Ry/au):

     atom    1 type  1   force =     0.00000000    0.00000000   -0.00473770
     atom    2 type  1   force =     0.00000000    0.00000000   -0.00473771
     atom    3 type  1   force =     0.00000000    0.00000000    0.00034477
     atom    4 type  1   force =     0.00000000    0.00000000    0.00034477
     atom    5 type  1   force =     0.00000000    0.00000000   -0.00034476
     atom    6 type  1   force =     0.00000000    0.00000000   -0.00034476
     atom    7 type  1   force =     0.00000000    0.00000000    0.00473770
     atom    8 type  1   force =     0.00000000    0.00000000    0.00473770

     Total force =     0.009500     Total SCF correction =     0.000103


     entering subroutine stress ...

          total   stress  (Ry/bohr**3)                   (kbar)     P=  -13.70
  -0.00015810   0.00000000   0.00000000        -23.26      0.00      0.00
   0.00000000  -0.00015810   0.00000000          0.00    -23.26      0.00
   0.00000000   0.00000000   0.00003686          0.00      0.00      5.42


     number of scf cycles    =   3
     number of bfgs steps    =   2

     energy   old            =     -99.5797823830 Ry
     energy   new            =     -99.5799044992 Ry

     CASE: energy  _new < energy  _old

     new trust radius        =       0.0090630554 bohr
     new conv_thr            =       0.0000000122 Ry


ATOMIC_POSITIONS (crystal)
Al       0.000000000   0.000000000  -0.000677114
Al       0.500000000   0.500000000  -0.000677114
Al       0.500000000   0.000000000   0.125114645
Al       0.000000000   0.500000000   0.125114645
Al       0.000000000   0.000000000   0.249885354
Al       0.500000000   0.500000000   0.249885355
Al       0.500000000   0.000000000   0.375677114
Al       0.000000000   0.500000000   0.375677114



     Writing output data file Al_100_2_2.save
     NEW-OLD atomic charge density approx. for the potential

     total cpu time spent up to now is      376.0 secs

     per-process dynamical memory:    92.5 Mb

     Self-consistent Calculation

     iteration #  1     ecut=    30.00 Ry     beta=0.30
     Davidson diagonalization with overlap
     ethr =  1.00E-06,  avg # of iterations =  3.0

     Threshold (ethr) on eigenvalues was too large:
     Diagonalizing with lowered threshold

     Davidson diagonalization with overlap
     ethr =  7.90E-08,  avg # of iterations =  1.6

     total cpu time spent up to now is      405.5 secs

     total energy              =     -99.58006826 Ry
     Harris-Foulkes estimate   =     -99.58006998 Ry
     estimated scf accuracy    <       0.00001919 Ry

     iteration #  2     ecut=    30.00 Ry     beta=0.30
     Davidson diagonalization with overlap
     ethr =  7.99E-08,  avg # of iterations =  1.0

     total cpu time spent up to now is      416.6 secs

     total energy              =     -99.58006410 Ry
     Harris-Foulkes estimate   =     -99.58006843 Ry
     estimated scf accuracy    <       0.00001211 Ry

     iteration #  3     ecut=    30.00 Ry     beta=0.30
     Davidson diagonalization with overlap
     ethr =  5.05E-08,  avg # of iterations =  2.0

     total cpu time spent up to now is      430.0 secs

     total energy              =     -99.58006651 Ry
     Harris-Foulkes estimate   =     -99.58006681 Ry
     estimated scf accuracy    <       0.00000182 Ry

     iteration #  4     ecut=    30.00 Ry     beta=0.30
     Davidson diagonalization with overlap
     ethr =  7.59E-09,  avg # of iterations =  1.1

     total cpu time spent up to now is      441.0 secs

     total energy              =     -99.58006655 Ry
     Harris-Foulkes estimate   =     -99.58006659 Ry
     estimated scf accuracy    <       0.00000052 Ry

     iteration #  5     ecut=    30.00 Ry     beta=0.30
     Davidson diagonalization with overlap
     ethr =  2.18E-09,  avg # of iterations =  2.0

     total cpu time spent up to now is      454.4 secs

     total energy              =     -99.58006661 Ry
     Harris-Foulkes estimate   =     -99.58006660 Ry
     estimated scf accuracy    <       0.00000005 Ry

     iteration #  6     ecut=    30.00 Ry     beta=0.30
     Davidson diagonalization with overlap
     ethr =  2.23E-10,  avg # of iterations =  2.9

     total cpu time spent up to now is      469.4 secs

     total energy              =     -99.58006663 Ry
     Harris-Foulkes estimate   =     -99.58006663 Ry
     estimated scf accuracy    <       0.00000012 Ry

     iteration #  7     ecut=    30.00 Ry     beta=0.30
     Davidson diagonalization with overlap
     ethr =  2.23E-10,  avg # of iterations =  1.0

     total cpu time spent up to now is      480.7 secs

     total energy              =     -99.58006662 Ry
     Harris-Foulkes estimate   =     -99.58006663 Ry
     estimated scf accuracy    <       0.00000012 Ry

     iteration #  8     ecut=    30.00 Ry     beta=0.30
     Davidson diagonalization with overlap
     ethr =  2.23E-10,  avg # of iterations =  1.0

     total cpu time spent up to now is      493.7 secs

     total energy              =     -99.58006662 Ry
     Harris-Foulkes estimate   =     -99.58006662 Ry
     estimated scf accuracy    <       0.00000005 Ry

     iteration #  9     ecut=    30.00 Ry     beta=0.30
     Davidson diagonalization with overlap
     ethr =  2.23E-10,  avg # of iterations =  1.0

     total cpu time spent up to now is      505.1 secs

     total energy              =     -99.58006662 Ry
     Harris-Foulkes estimate   =     -99.58006662 Ry
     estimated scf accuracy    <       0.00000003 Ry

     iteration # 10     ecut=    30.00 Ry     beta=0.30
     Davidson diagonalization with overlap
     ethr =  1.06E-10,  avg # of iterations =  1.0

     total cpu time spent up to now is      516.6 secs

     End of self-consistent calculation

          k = 0.0000 0.0000 0.0000 (  4877 PWs)   bands (ev):

    -8.8061  -7.3965  -5.2413  -2.3781  -0.5498  -0.5498  -0.0520   0.7542
     0.7542   0.8228   0.8228   2.2725   2.2725   2.7630   2.7630   3.4365

          k = 0.0000 0.0625 0.0000 (  4917 PWs)   bands (ev):

    -8.7704  -7.3611  -5.2062  -2.3433  -1.1150  -0.5171  -0.0189   0.2053
     0.7869   0.8830   1.4355   2.2176   2.3571   2.7955   2.8522   3.4688

          k = 0.0000 0.1250 0.0000 (  4919 PWs)   bands (ev):

    -8.6633  -7.2548  -5.1012  -2.2391  -2.0147  -0.6698  -0.4186   0.0807
     0.8856   0.9874   1.3895   2.2886   2.6607   2.8938   3.5651   3.8570

          k = 0.0000 0.1875 0.0000 (  4907 PWs)   bands (ev):

    -8.4850  -7.0779  -4.9259  -2.9115  -2.0654  -1.5521  -0.2546   0.2466
     0.5263   1.0496   1.1562   2.5355   3.0571   3.2582   3.7220   3.7754

          k = 0.0000 0.2500 0.0000 (  4893 PWs)   bands (ev):

    -8.2357  -6.8305  -4.6813  -3.7604  -2.3916  -1.8230  -0.2986  -0.0243
     0.4788   1.2792   1.3839   2.5012   2.7738   3.2853   3.9285   4.1799

          k = 0.0000 0.3125 0.0000 (  4899 PWs)   bands (ev):

    -7.9159  -6.5131  -4.5511  -4.3675  -3.1749  -1.5126  -1.0701   0.2706
     0.7761   1.5495   1.5746   1.9014   3.0518   3.4242   3.5800   3.9776

          k = 0.0000 0.3750 0.0000 (  4870 PWs)   bands (ev):

    -7.5258  -6.1260  -5.2791  -3.9845  -3.8967  -1.7821  -1.1340   0.6323
     1.0104   1.1392   1.9359   2.1207   2.7344   3.1172   3.6089   3.9393

          k = 0.0000 0.4375 0.0000 (  4896 PWs)   bands (ev):

    -7.0663  -5.9420  -5.6701  -4.5544  -3.5340  -2.4315  -0.6900   0.3884
     1.0590   1.5657   2.1099   2.3619   2.5401   2.5949   3.4111   3.5501

          k = 0.0000-0.5000 0.0000 (  4918 PWs)   bands (ev):

    -6.5381  -6.5381  -5.1459  -5.1459  -3.0159  -3.0159  -0.1816  -0.1816
     1.5514   1.5514   2.0536   2.0536   2.8536   2.8536   3.0242   3.0242

          k = 0.0625 0.0625 0.0000 (  4915 PWs)   bands (ev):

    -8.7347  -7.3256  -5.1712  -2.3085  -1.0824  -1.0824   0.0144   0.2475
     0.2475   1.4951   1.4951   2.2794   2.2794   2.8992   2.8992   3.5007

          k = 0.0625 0.1250 0.0000 (  4910 PWs)   bands (ev):

    -8.6276  -7.2194  -5.0661  -2.2043  -1.9809  -0.9881  -0.6248   0.1139
     0.3496   1.4262   1.6037   2.3774   2.5416   3.0310   3.5940   3.9356

          k = 0.0625 0.1875 0.0000 (  4908 PWs)   bands (ev):

    -8.4494  -7.0425  -4.8910  -2.8773  -2.0308  -1.5208  -0.8084   0.2797
     0.5024   0.5753   1.7695   2.5271   3.1141   3.3562   3.7338   3.8160

          k = 0.0625 0.2500 0.0000 (  4899 PWs)   bands (ev):

    -8.2002  -6.7952  -4.6463  -3.7258  -2.3577  -1.7884  -0.5776  -0.2655
     0.5117   0.7506   1.9751   2.4931   2.8665   3.3552   3.5921   4.0671

          k = 0.0625 0.3125 0.0000 (  4869 PWs)   bands (ev):

    -7.8803  -6.4778  -4.5163  -4.3325  -3.1405  -1.4780  -1.0362  -0.2786
     0.8090   1.0486   1.7184   2.3667   2.8906   3.1032   3.5872   4.0473

          k = 0.0625 0.3750 0.0000 (  4875 PWs)   bands (ev):

    -7.4904  -6.0909  -5.2443  -3.9500  -3.8621  -1.7478  -1.1004   0.0845
     1.0599   1.1710   1.4112   2.2084   2.7079   3.2374   3.4555   3.5317

          k = 0.0625 0.4375 0.0000 (  4881 PWs)   bands (ev):

    -7.0310  -5.9070  -5.6351  -4.5196  -3.4993  -2.3972  -0.6567   0.3865
     0.5623   1.5843   1.5950   1.8352   2.6538   2.9109   3.1287   3.8766

          k = 0.0625-0.5000 0.0000 (  4898 PWs)   bands (ev):

    -6.5029  -6.5029  -5.1110  -5.1110  -2.9815  -2.9815  -0.1500  -0.1500
     1.0246   1.0246   2.0579   2.0579   2.3776   2.3776   3.6056   3.6056

          k = 0.1250 0.1250 0.0000 (  4909 PWs)   bands (ev):

    -8.5206  -7.1132  -4.9609  -2.1000  -1.8809  -1.8809  -0.5273  -0.5273
     0.2133   1.5240   1.5240   2.6743   2.6743   3.6663   4.0457   4.0457

          k = 0.1250 0.1875 0.0000 (  4904 PWs)   bands (ev):

    -8.3425  -6.9365  -4.7861  -2.7747  -1.9269  -1.7228  -1.3987  -0.3597
     0.3789   0.6607   1.6827   2.8274   3.4795   3.5057   3.8236   4.0011

          k = 0.1250 0.2500 0.0000 (  4892 PWs)   bands (ev):

    -8.0935  -6.6893  -4.5417  -3.6227  -2.2586  -1.6850  -1.4653  -0.1793
    -0.1087   0.6101   1.8829   2.6440   2.7774   3.1395   4.1196   4.1448

          k = 0.1250 0.3125 0.0000 (  4875 PWs)   bands (ev):

    -7.7739  -6.3722  -4.4124  -4.2282  -3.0381  -1.3754  -1.1650  -0.9352
     0.1782   0.9060   1.7790   2.0364   2.3287   3.3734   3.4072   3.9503

          k = 0.1250 0.3750 0.0000 (  4863 PWs)   bands (ev):

    -7.3843  -5.9857  -5.1397  -3.8460  -3.7585  -1.6457  -0.9988  -0.7963
     0.5452   1.1520   1.2643   1.3475   2.6313   2.6887   3.3436   3.7607

          k = 0.1250 0.4375 0.0000 (  4869 PWs)   bands (ev):

    -6.9252  -5.8019  -5.5301  -4.4154  -3.3956  -2.2944  -0.5578  -0.3640
     0.5334   0.7198   0.9762   1.6619   2.0904   2.7495   3.0472   4.0733

          k = 0.1250-0.5000 0.0000 (  4874 PWs)   bands (ev):

    -6.3975  -6.3975  -5.0065  -5.0065  -2.8783  -2.8783  -0.0769  -0.0769
     0.1800   0.1800   1.4640   1.4640   2.2137   2.2137   3.5321   3.5321

          k = 0.1875 0.1875 0.0000 (  4911 PWs)   bands (ev):

    -8.1647  -6.7600  -4.6116  -2.6055  -2.6055  -1.7543  -1.2399  -1.2399
     0.5436   0.8240   0.8240   2.7283   3.5603   3.5604   4.0748   4.0863

          k = 0.1875 0.2500 0.0000 (  4890 PWs)   bands (ev):

    -7.9159  -6.5131  -4.3675  -3.4509  -2.3795  -2.0647  -1.5133  -1.0041
     0.0030   0.7732   1.0484   1.9291   2.8096   3.2710   3.7655   4.2977

          k = 0.1875 0.3125 0.0000 (  4881 PWs)   bands (ev):

    -7.5967  -6.1964  -4.2394  -4.0544  -2.8697  -2.0497  -1.2049  -0.7725
    -0.6936   1.0649   1.1764   1.3101   2.1091   2.5235   3.8354   4.3916

          k = 0.1875 0.3750 0.0000 (  4860 PWs)   bands (ev):

    -7.2075  -5.8102  -4.9657  -3.6725  -3.5865  -1.6794  -1.4760  -0.8310
    -0.3290   0.4824   1.2503   1.3966   1.8451   1.8605   3.4480   3.8472

          k = 0.1875 0.4375 0.0000 (  4874 PWs)   bands (ev):

    -6.7490  -5.6272  -5.3553  -4.2423  -3.2230  -2.1236  -1.2411  -0.4130
    -0.1296   0.1069   0.6841   1.1599   1.8899   2.2097   2.8923   3.2425

          k = 0.1875-0.5000 0.0000 (  4874 PWs)   bands (ev):

    -6.2219  -6.2219  -4.8323  -4.8323  -2.7064  -2.7064  -0.7394  -0.7394
     0.1290   0.1290   0.6064   0.6064   2.3594   2.3594   2.6915   2.6915

          k = 0.2500 0.2500 0.0000 (  4889 PWs)   bands (ev):

    -7.6675  -6.2666  -4.1239  -3.2118  -3.2118  -1.8390  -1.8390  -1.2736
     0.2335   0.2335   0.9989   1.1168   2.4657   3.0207   3.0207   4.3315

          k = 0.2500 0.3125 0.0000 (  4892 PWs)   bands (ev):

    -7.3489  -5.9505  -3.9978  -3.8114  -2.9166  -2.6057  -1.5339  -0.9682
    -0.5314   0.3584   0.5254   1.2634   1.7397   2.3006   3.2617   3.7285

          k = 0.2500 0.3750 0.0000 (  4854 PWs)   bands (ev):

    -6.9604  -5.5650  -4.7226  -3.4303  -3.3486  -2.5158  -1.2407  -1.1588
    -0.6155  -0.3220   0.8520   0.9708   1.6573   1.6941   3.0603   3.3819

          k = 0.2500 0.4375 0.0000 (  4880 PWs)   bands (ev):

    -6.5027  -5.3829  -5.1109  -4.0007  -2.9817  -2.0762  -1.8848  -0.9976
    -0.7214  -0.1428   0.3509   0.8470   1.4658   2.0968   2.4436   3.0550

          k = 0.2500-0.5000 0.0000 (  4878 PWs)   bands (ev):

    -5.9765  -5.9765  -4.5890  -4.5890  -2.4661  -2.4661  -1.5684  -1.5684
    -0.2167  -0.2167   0.3461   0.3461   1.8960   1.8960   2.5642   2.5642

          k = 0.3125 0.3125 0.0000 (  4876 PWs)   bands (ev):

    -7.0310  -5.6350  -3.6886  -3.6886  -3.4994  -2.3111  -2.3111  -0.6831
    -0.3870  -0.2319  -0.2319   0.9070   1.6281   2.5712   2.5712   2.9983

          k = 0.3125 0.3750 0.0000 (  4854 PWs)   bands (ev):

    -6.6433  -5.2505  -4.4106  -3.3232  -3.1195  -3.0151  -1.9365  -1.1280
    -0.9354  -0.2793   0.1278   0.2216   1.9094   1.9651   2.3179   2.8745

          k = 0.3125 0.4375 0.0000 (  4868 PWs)   bands (ev):

    -6.1866  -5.0693  -4.7977  -3.6926  -2.8534  -2.6722  -1.7669  -1.5789
    -1.4943  -0.4133   0.1428   0.5205   1.3290   1.7045   2.3669   3.0550

          k = 0.3125-0.5000 0.0000 (  4870 PWs)   bands (ev):

    -5.6617  -5.6617  -4.2774  -4.2774  -2.3439  -2.3439  -2.1581  -2.1581
    -0.9861  -0.9861   0.5767   0.5767   1.2084   1.2084   2.7919   2.7919

          k = 0.3750 0.3750 0.0000 (  4860 PWs)   bands (ev):

    -6.2568  -4.8673  -4.0311  -4.0311  -2.7410  -2.6508  -2.6508  -1.8332
    -0.5673  -0.5673  -0.4791   0.0748   1.6403   2.2450   2.2450   2.3011

          k = 0.3750 0.4375 0.0000 (  4865 PWs)   bands (ev):

    -5.8014  -4.6872  -4.4161  -3.5958  -3.2898  -2.4783  -2.2951  -2.2071
    -1.2064  -1.1195  -0.1395   0.4412   1.0787   1.6453   2.6137   2.6602

          k = 0.3750-0.5000 0.0000 (  4856 PWs)   bands (ev):

    -5.2778  -5.2778  -3.8994  -3.8994  -3.0567  -3.0567  -1.7830  -1.7830
    -1.6962  -1.6962   0.3202   0.3202   1.1306   1.1306   2.8582   2.8582

          k = 0.4375 0.4375 0.0000 (  4898 PWs)   bands (ev):

    -5.3475  -4.2379  -4.2379  -3.9687  -3.1251  -2.8560  -2.8560  -1.8514
    -1.7641  -0.7697  -0.7697   0.2526   1.0640   2.0474   2.0474   2.7920

          k = 0.4375-0.5000 0.0000 (  4882 PWs)   bands (ev):

    -4.8258  -4.8258  -3.7328  -3.7328  -3.4271  -3.4271  -2.3434  -2.3434
    -1.3418  -1.3418  -0.2740  -0.2740   1.5128   1.5128   2.4823   2.4823

          k =-0.5000-0.5000 0.0000 (  4852 PWs)   bands (ev):

    -4.3066  -4.3066  -4.3066  -4.3066  -2.9242  -2.9242  -2.9242  -2.9242
    -0.8371  -0.8371  -0.8371  -0.8371   1.9815   1.9815   1.9815   1.9815

     the Fermi energy is     1.9314 ev

!    total energy              =     -99.58006661 Ry
     Harris-Foulkes estimate   =     -99.58006662 Ry
     estimated scf accuracy    <          9.6E-09 Ry

     The total energy is the sum of the following terms:

     one-electron contribution =    -134.18388538 Ry
     hartree contribution      =      73.74121369 Ry
     xc contribution           =     -79.83080097 Ry
     ewald contribution        =      40.69319009 Ry
     smearing contrib. (-TS)   =       0.00021596 Ry

     convergence has been achieved in  10 iterations

     Forces acting on atoms (Ry/au):

     atom    1 type  1   force =     0.00000000    0.00000000   -0.00419182
     atom    2 type  1   force =     0.00000000    0.00000000   -0.00419182
     atom    3 type  1   force =     0.00000000    0.00000000   -0.00026353
     atom    4 type  1   force =     0.00000000    0.00000000   -0.00026353
     atom    5 type  1   force =     0.00000000    0.00000000    0.00026352
     atom    6 type  1   force =     0.00000000    0.00000000    0.00026352
     atom    7 type  1   force =     0.00000000    0.00000000    0.00419182
     atom    8 type  1   force =     0.00000000    0.00000000    0.00419182

     Total force =     0.008400     Total SCF correction =     0.000157


     entering subroutine stress ...

          total   stress  (Ry/bohr**3)                   (kbar)     P=  -14.11
  -0.00015995   0.00000000   0.00000000        -23.53      0.00      0.00
   0.00000000  -0.00015995   0.00000000          0.00    -23.53      0.00
   0.00000000   0.00000000   0.00003217          0.00      0.00      4.73


     number of scf cycles    =   4
     number of bfgs steps    =   3

     energy   old            =     -99.5799044992 Ry
     energy   new            =     -99.5800666112 Ry

     CASE: energy  _new < energy  _old

     new trust radius        =       0.0135945830 bohr
     new conv_thr            =       0.0000000162 Ry


ATOMIC_POSITIONS (crystal)
Al       0.000000000   0.000000000  -0.001124008
Al       0.500000000   0.500000000  -0.001124010
Al       0.500000000   0.000000000   0.125138231
Al       0.000000000   0.500000000   0.125138231
Al       0.000000000   0.000000000   0.249861769
Al       0.500000000   0.500000000   0.249861769
Al       0.500000000   0.000000000   0.376124009
Al       0.000000000   0.500000000   0.376124009



     Writing output data file Al_100_2_2.save
     NEW-OLD atomic charge density approx. for the potential

     total cpu time spent up to now is      522.1 secs

     per-process dynamical memory:    92.5 Mb

     Self-consistent Calculation

     iteration #  1     ecut=    30.00 Ry     beta=0.30
     Davidson diagonalization with overlap
     ethr =  1.00E-06,  avg # of iterations =  3.1

     total cpu time spent up to now is      540.4 secs

     total energy              =     -99.58027322 Ry
     Harris-Foulkes estimate   =     -99.58027581 Ry
     estimated scf accuracy    <       0.00002860 Ry

     iteration #  2     ecut=    30.00 Ry     beta=0.30
     Davidson diagonalization with overlap
     ethr =  1.19E-07,  avg # of iterations =  1.0

     total cpu time spent up to now is      551.6 secs

     total energy              =     -99.58026740 Ry
     Harris-Foulkes estimate   =     -99.58027409 Ry
     estimated scf accuracy    <       0.00001818 Ry

     iteration #  3     ecut=    30.00 Ry     beta=0.30
     Davidson diagonalization with overlap
     ethr =  7.57E-08,  avg # of iterations =  2.0

     total cpu time spent up to now is      565.3 secs

     total energy              =     -99.58027121 Ry
     Harris-Foulkes estimate   =     -99.58027166 Ry
     estimated scf accuracy    <       0.00000275 Ry

     iteration #  4     ecut=    30.00 Ry     beta=0.30
     Davidson diagonalization with overlap
     ethr =  1.14E-08,  avg # of iterations =  1.6

     total cpu time spent up to now is      576.7 secs

     total energy              =     -99.58027129 Ry
     Harris-Foulkes estimate   =     -99.58027137 Ry
     estimated scf accuracy    <       0.00000074 Ry

     iteration #  5     ecut=    30.00 Ry     beta=0.30
     Davidson diagonalization with overlap
     ethr =  3.08E-09,  avg # of iterations =  1.7

     total cpu time spent up to now is      589.1 secs

     total energy              =     -99.58027132 Ry
     Harris-Foulkes estimate   =     -99.58027133 Ry
     estimated scf accuracy    <       0.00000010 Ry

     iteration #  6     ecut=    30.00 Ry     beta=0.30
     Davidson diagonalization with overlap
     ethr =  4.30E-10,  avg # of iterations =  3.0

     total cpu time spent up to now is      603.2 secs

     total energy              =     -99.58027136 Ry
     Harris-Foulkes estimate   =     -99.58027135 Ry
     estimated scf accuracy    <       0.00000006 Ry

     iteration #  7     ecut=    30.00 Ry     beta=0.30
     Davidson diagonalization with overlap
     ethr =  2.36E-10,  avg # of iterations =  1.0

     total cpu time spent up to now is      614.1 secs

     total energy              =     -99.58027134 Ry
     Harris-Foulkes estimate   =     -99.58027136 Ry
     estimated scf accuracy    <       0.00000007 Ry

     iteration #  8     ecut=    30.00 Ry     beta=0.30
     Davidson diagonalization with overlap
     ethr =  2.36E-10,  avg # of iterations =  1.8

     total cpu time spent up to now is      625.3 secs

     End of self-consistent calculation

          k = 0.0000 0.0000 0.0000 (  4877 PWs)   bands (ev):

    -8.7922  -7.3784  -5.2425  -2.3854  -0.5353  -0.5353  -0.0599   0.7747
     0.7747   0.8368   0.8368   2.2895   2.2895   2.7619   2.7619   3.4211

          k = 0.0000 0.0625 0.0000 (  4917 PWs)   bands (ev):

    -8.7566  -7.3429  -5.2075  -2.3506  -1.1007  -0.5027  -0.0268   0.2249
     0.8074   0.8970   1.4499   2.2228   2.3675   2.7944   2.8703   3.4535

          k = 0.0000 0.1250 0.0000 (  4919 PWs)   bands (ev):

    -8.6495  -7.2367  -5.1024  -2.2464  -2.0006  -0.6507  -0.4042   0.0728
     0.9061   1.0013   1.3894   2.3044   2.6750   2.8928   3.5501   3.8697

          k = 0.0000 0.1875 0.0000 (  4907 PWs)   bands (ev):

    -8.4712  -7.0597  -4.9272  -2.8975  -2.0726  -1.5333  -0.2402   0.2388
     0.5258   1.0702   1.1701   2.5520   3.0560   3.2515   3.7074   3.7894

          k = 0.0000 0.2500 0.0000 (  4893 PWs)   bands (ev):

    -8.2218  -6.8123  -4.6825  -3.7465  -2.3730  -1.8302  -0.2993  -0.0099
     0.4710   1.2998   1.3980   2.4941   2.7901   3.2842   3.9152   4.1946

          k = 0.0000 0.3125 0.0000 (  4899 PWs)   bands (ev):

    -7.9020  -6.4949  -4.5371  -4.3687  -3.1564  -1.5198  -1.0709   0.2851
     0.7684   1.5560   1.5952   1.9017   3.0669   3.4388   3.5788   3.9731

          k = 0.0000 0.3750 0.0000 (  4870 PWs)   bands (ev):

    -7.5119  -6.1078  -5.2652  -3.9857  -3.8783  -1.7829  -1.1411   0.6469
     1.0048   1.1317   1.9566   2.1329   2.7490   3.1162   3.6202   3.9381

          k = 0.0000 0.4375 0.0000 (  4896 PWs)   bands (ev):

    -7.0524  -5.9281  -5.6519  -4.5360  -3.5351  -2.4325  -0.6970   0.3819
     1.0735   1.5583   2.1245   2.3826   2.5533   2.5884   3.4319   3.5634

          k = 0.0000-0.5000 0.0000 (  4918 PWs)   bands (ev):

    -6.5242  -6.5242  -5.1276  -5.1276  -3.0170  -3.0170  -0.1884  -0.1884
     1.5660   1.5660   2.0465   2.0465   2.8743   2.8743   3.0376   3.0376

          k = 0.0625 0.0625 0.0000 (  4915 PWs)   bands (ev):

    -8.7208  -7.3075  -5.1724  -2.3158  -1.0681  -1.0681   0.0065   0.2671
     0.2671   1.5093   1.5093   2.2790   2.2790   2.9163   2.9163   3.4855

          k = 0.0625 0.1250 0.0000 (  4910 PWs)   bands (ev):

    -8.6138  -7.2013  -5.0673  -2.2116  -1.9668  -0.9737  -0.6058   0.1060
     0.3693   1.4256   1.6179   2.3766   2.5562   3.0477   3.5791   3.9530

          k = 0.0625 0.1875 0.0000 (  4908 PWs)   bands (ev):

    -8.4355  -7.0244  -4.8922  -2.8632  -2.0380  -1.5020  -0.7941   0.2719
     0.5185   0.5782   1.7838   2.5260   3.1314   3.3494   3.7208   3.8301

          k = 0.0625 0.2500 0.0000 (  4899 PWs)   bands (ev):

    -8.1863  -6.7770  -4.6475  -3.7118  -2.3391  -1.7956  -0.5633  -0.2661
     0.5040   0.7701   1.9887   2.4877   2.8645   3.3723   3.6030   4.0561

          k = 0.0625 0.3125 0.0000 (  4869 PWs)   bands (ev):

    -7.8665  -6.4597  -4.5024  -4.3337  -3.1220  -1.4852  -1.0369  -0.2643
     0.8014   1.0682   1.7141   2.3780   2.9049   3.1023   3.5992   4.0466

          k = 0.0625 0.3750 0.0000 (  4875 PWs)   bands (ev):

    -7.4765  -6.0727  -5.2303  -3.9512  -3.8437  -1.7487  -1.1074   0.0989
     1.0536   1.1635   1.4309   2.2227   2.7211   3.2320   3.4546   3.5518

          k = 0.0625 0.4375 0.0000 (  4881 PWs)   bands (ev):

    -7.0171  -5.8931  -5.6168  -4.5012  -3.5004  -2.3982  -0.6637   0.3852
     0.5712   1.5878   1.5985   1.8545   2.6476   2.9308   3.1423   3.8757

          k = 0.0625-0.5000 0.0000 (  4898 PWs)   bands (ev):

    -6.4890  -6.4890  -5.0927  -5.0927  -2.9825  -2.9825  -0.1566  -0.1566
     1.0387   1.0387   2.0533   2.0533   2.3951   2.3951   3.6192   3.6192

          k = 0.1250 0.1250 0.0000 (  4909 PWs)   bands (ev):

    -8.5068  -7.0951  -4.9622  -2.1073  -1.8667  -1.8667  -0.5081  -0.5081
     0.2055   1.5234   1.5234   2.6886   2.6886   3.6534   4.0635   4.0635

          k = 0.1250 0.1875 0.0000 (  4904 PWs)   bands (ev):

    -8.3287  -6.9183  -4.7873  -2.7607  -1.9341  -1.7084  -1.3801  -0.3405
     0.3711   0.6599   1.6819   2.8413   3.4731   3.5144   3.8381   3.9912

          k = 0.1250 0.2500 0.0000 (  4892 PWs)   bands (ev):

    -8.0797  -6.6712  -4.5429  -3.6087  -2.2399  -1.6922  -1.4512  -0.1750
    -0.0946   0.6024   1.8819   2.6403   2.7915   3.1507   4.1295   4.1395

          k = 0.1250 0.3125 0.0000 (  4875 PWs)   bands (ev):

    -7.7601  -6.3541  -4.3984  -4.2294  -3.0195  -1.3825  -1.1508  -0.9360
     0.1972   0.8985   1.7736   2.0507   2.3270   3.3932   3.4207   3.9462

          k = 0.1250 0.3750 0.0000 (  4863 PWs)   bands (ev):

    -7.3704  -5.9675  -5.1258  -3.8471  -3.7401  -1.6466  -1.0058  -0.7821
     0.5643   1.1454   1.2570   1.3616   2.6304   2.7082   3.3377   3.7745

          k = 0.1250 0.4375 0.0000 (  4869 PWs)   bands (ev):

    -6.9113  -5.7880  -5.5119  -4.3971  -3.3967  -2.2954  -0.5645  -0.3497
     0.5264   0.7338   0.9953   1.6567   2.1078   2.7430   3.0465   4.0726

          k = 0.1250-0.5000 0.0000 (  4874 PWs)   bands (ev):

    -6.3836  -6.3836  -4.9882  -4.9882  -2.8793  -2.8793  -0.0803  -0.0803
     0.1906   0.1906   1.4824   1.4824   2.2077   2.2077   3.5314   3.5314

          k = 0.1875 0.1875 0.0000 (  4911 PWs)   bands (ev):

    -8.1508  -6.7418  -4.6128  -2.5914  -2.5914  -1.7615  -1.2210  -1.2210
     0.5359   0.8232   0.8232   2.7424   3.5563   3.5563   4.0946   4.0984

          k = 0.1875 0.2500 0.0000 (  4890 PWs)   bands (ev):

    -7.9021  -6.4949  -4.3687  -3.4369  -2.3651  -2.0463  -1.5204  -0.9851
     0.0021   0.7656   1.0476   1.9433   2.8035   3.2906   3.7605   4.3114

          k = 0.1875 0.3125 0.0000 (  4881 PWs)   bands (ev):

    -7.5829  -6.1782  -4.2255  -4.0556  -2.8511  -2.0356  -1.2120  -0.7710
    -0.6770   1.0576   1.1905   1.3089   2.1030   2.5429   3.8318   4.3858

          k = 0.1875 0.3750 0.0000 (  4860 PWs)   bands (ev):

    -7.1936  -5.7919  -4.9518  -3.6736  -3.5681  -1.6653  -1.4769  -0.8378
    -0.3101   0.4963   1.2445   1.3913   1.8433   1.8778   3.4430   3.8465

          k = 0.1875 0.4375 0.0000 (  4874 PWs)   bands (ev):

    -6.7351  -5.6133  -5.3371  -4.2240  -3.2241  -2.1245  -1.2269  -0.4170
    -0.1186   0.1258   0.6772   1.1779   1.8840   2.2089   2.8862   3.2418

          k = 0.1875-0.5000 0.0000 (  4874 PWs)   bands (ev):

    -6.2080  -6.2080  -4.8140  -4.8140  -2.7074  -2.7074  -0.7251  -0.7251
[...]
     ewald contribution        =      37.76332478 Ry
     smearing contrib. (-TS)   =       0.00023706 Ry

     convergence has been achieved in  13 iterations

     Forces acting on atoms (Ry/au):

     atom    1 type  1   force =     0.00000000    0.00000000    0.00077474
     atom    2 type  1   force =     0.00000000    0.00000000    0.00077475
     atom    3 type  1   force =     0.00000000    0.00000000   -0.00166183
     atom    4 type  1   force =     0.00000000    0.00000000   -0.00166183
     atom    5 type  1   force =     0.00000000    0.00000000    0.00166183
     atom    6 type  1   force =     0.00000000    0.00000000    0.00166183
     atom    7 type  1   force =     0.00000000    0.00000000   -0.00077474
     atom    8 type  1   force =     0.00000000    0.00000000   -0.00077474

     Total force =     0.003667     Total SCF correction =     0.000058


     entering subroutine stress ...

          total   stress  (Ry/bohr**3)                   (kbar)     P=  -19.50
  -0.00018514   0.00000000   0.00000000        -27.24      0.00      0.00
   0.00000000  -0.00018514   0.00000000          0.00    -27.24      0.00
   0.00000000   0.00000000  -0.00002743          0.00      0.00     -4.04


     number of scf cycles    =  10
     number of bfgs steps    =   9

     energy   old            =     -99.5808812397 Ry
     energy   new            =     -99.5809778382 Ry

     CASE: energy  _new < energy  _old

     new trust radius        =       0.0085074148 bohr
     new conv_thr            =       0.0000000100 Ry


ATOMIC_POSITIONS (crystal)
Al       0.000000000   0.000000000  -0.004624794
Al       0.500000000   0.500000000  -0.004624798
Al       0.500000000   0.000000000   0.123900048
Al       0.000000000   0.500000000   0.123900048
Al       0.000000000   0.000000000   0.251099951
Al       0.500000000   0.500000000   0.251099952
Al       0.500000000   0.000000000   0.379624797
Al       0.000000000   0.500000000   0.379624797



     Writing output data file Al_100_2_2.save
     NEW-OLD atomic charge density approx. for the potential

     total cpu time spent up to now is     1353.8 secs

     per-process dynamical memory:    92.5 Mb

     Self-consistent Calculation

     iteration #  1     ecut=    30.00 Ry     beta=0.30
     Davidson diagonalization with overlap
     ethr =  1.00E-06,  avg # of iterations =  3.4

     total cpu time spent up to now is     1371.6 secs

     total energy              =     -99.58101652 Ry
     Harris-Foulkes estimate   =     -99.58102024 Ry
     estimated scf accuracy    <       0.00004274 Ry

     iteration #  2     ecut=    30.00 Ry     beta=0.30
     Davidson diagonalization with overlap
     ethr =  1.78E-07,  avg # of iterations =  1.1

     total cpu time spent up to now is     1382.8 secs

     total energy              =     -99.58100826 Ry
     Harris-Foulkes estimate   =     -99.58101757 Ry
     estimated scf accuracy    <       0.00002662 Ry

     iteration #  3     ecut=    30.00 Ry     beta=0.30
     Davidson diagonalization with overlap
     ethr =  1.11E-07,  avg # of iterations =  2.4

     total cpu time spent up to now is     1395.9 secs

     total energy              =     -99.58101360 Ry
     Harris-Foulkes estimate   =     -99.58101425 Ry
     estimated scf accuracy    <       0.00000351 Ry

     iteration #  4     ecut=    30.00 Ry     beta=0.30
     Davidson diagonalization with overlap
     ethr =  1.46E-08,  avg # of iterations =  1.5

     total cpu time spent up to now is     1407.6 secs

     total energy              =     -99.58101384 Ry
     Harris-Foulkes estimate   =     -99.58101386 Ry
     estimated scf accuracy    <       0.00000063 Ry

     iteration #  5     ecut=    30.00 Ry     beta=0.30
     Davidson diagonalization with overlap
     ethr =  2.63E-09,  avg # of iterations =  1.3

     total cpu time spent up to now is     1420.1 secs

     total energy              =     -99.58101378 Ry
     Harris-Foulkes estimate   =     -99.58101386 Ry
     estimated scf accuracy    <       0.00000041 Ry

     iteration #  6     ecut=    30.00 Ry     beta=0.30
     Davidson diagonalization with overlap
     ethr =  1.69E-09,  avg # of iterations =  2.4

     total cpu time spent up to now is     1433.1 secs

     total energy              =     -99.58101385 Ry
     Harris-Foulkes estimate   =     -99.58101385 Ry
     estimated scf accuracy    <       0.00000006 Ry

     iteration #  7     ecut=    30.00 Ry     beta=0.30
     Davidson diagonalization with overlap
     ethr =  2.53E-10,  avg # of iterations =  1.6

     total cpu time spent up to now is     1445.1 secs

     total energy              =     -99.58101386 Ry
     Harris-Foulkes estimate   =     -99.58101385 Ry
     estimated scf accuracy    <       0.00000007 Ry

     iteration #  8     ecut=    30.00 Ry     beta=0.30
     Davidson diagonalization with overlap
     ethr =  2.53E-10,  avg # of iterations =  1.0

     total cpu time spent up to now is     1456.2 secs

     total energy              =     -99.58101385 Ry
     Harris-Foulkes estimate   =     -99.58101386 Ry
     estimated scf accuracy    <       0.00000009 Ry

     iteration #  9     ecut=    30.00 Ry     beta=0.30
     Davidson diagonalization with overlap
     ethr =  2.53E-10,  avg # of iterations =  1.0

     total cpu time spent up to now is     1467.0 secs

     total energy              =     -99.58101384 Ry
     Harris-Foulkes estimate   =     -99.58101385 Ry
     estimated scf accuracy    <       0.00000002 Ry

     iteration # 10     ecut=    30.00 Ry     beta=0.30
     Davidson diagonalization with overlap
     ethr =  9.09E-11,  avg # of iterations =  2.3

     total cpu time spent up to now is     1480.5 secs

     End of self-consistent calculation

          k = 0.0000 0.0000 0.0000 (  4877 PWs)   bands (ev):

    -8.6551  -7.2932  -5.2252  -2.4442  -0.3911  -0.3911  -0.1194   0.8699
     0.8699   0.9769   0.9769   2.3699   2.3699   2.7913   2.7913   3.2916

          k = 0.0000 0.0625 0.0000 (  4917 PWs)   bands (ev):

    -8.6194  -7.2578  -5.1902  -2.4094  -0.9587  -0.3585  -0.0862   0.3201
     0.9026   1.0327   1.5930   2.2676   2.4268   2.8238   2.9562   3.3243

          k = 0.0000 0.1250 0.0000 (  4919 PWs)   bands (ev):

    -8.5123  -7.1515  -5.0850  -2.3051  -1.8601  -0.5593  -0.2600   0.0135
     1.0014   1.1377   1.4168   2.4108   2.7869   2.9221   3.4223   3.9069

          k = 0.0000 0.1875 0.0000 (  4907 PWs)   bands (ev):

    -8.3340  -6.9744  -4.9097  -2.7579  -2.1310  -1.4436  -0.0959   0.1801
     0.5501   1.1655   1.3076   2.6360   3.0854   3.2002   3.5833   3.9261

          k = 0.0000 0.2500 0.0000 (  4893 PWs)   bands (ev):

    -8.0846  -6.7269  -4.6649  -3.6075  -2.2845  -1.8882  -0.2767   0.1347
     0.4129   1.3952   1.5371   2.4363   2.8717   3.3136   3.8007   4.3411

          k = 0.0000 0.3125 0.0000 (  4899 PWs)   bands (ev):

    -7.7648  -6.4094  -4.3986  -4.3507  -3.0688  -1.5772  -1.0495   0.4298
     0.7110   1.5962   1.6906   1.9413   3.1425   3.5850   3.6081   3.9296

          k = 0.0000 0.3750 0.0000 (  4870 PWs)   bands (ev):

    -7.3745  -6.0221  -5.1270  -3.9675  -3.7913  -1.7626  -1.1979   0.7918
     0.9605   1.0755   2.0521   2.2565   2.8950   3.0965   3.6697   3.9674

          k = 0.0000 0.4375 0.0000 (  4896 PWs)   bands (ev):

    -6.9149  -5.7902  -5.5659  -4.4494  -3.5165  -2.4128  -0.7528   0.3303
     1.2186   1.5034   2.2701   2.4783   2.5397   2.6839   3.5279   3.6943

          k = 0.0000-0.5000 0.0000 (  4918 PWs)   bands (ev):

    -6.3865  -6.3865  -5.0414  -5.0414  -2.9979  -2.9979  -0.2426  -0.2426
     1.7114   1.7114   1.9936   1.9936   2.9702   2.9702   3.1709   3.1709

          k = 0.0625 0.0625 0.0000 (  4915 PWs)   bands (ev):

    -8.5837  -7.2223  -5.1551  -2.3746  -0.9260  -0.9260  -0.0529   0.3603
     0.3603   1.6495   1.6495   2.3077   2.3077   2.9970   2.9970   3.3569

          k = 0.0625 0.1250 0.0000 (  4910 PWs)   bands (ev):

    -8.4766  -7.1160  -5.0499  -2.2702  -1.8262  -0.8314  -0.5153   0.0469
     0.4619   1.4510   1.7575   2.4037   2.6988   3.1281   3.4531   4.0267

          k = 0.0625 0.1875 0.0000 (  4908 PWs)   bands (ev):

    -8.2983  -6.9391  -4.8747  -2.7236  -2.0963  -1.4116  -0.6530   0.2132
     0.5784   0.6342   1.9242   2.5515   3.2219   3.2942   3.6062   3.9642

          k = 0.0625 0.2500 0.0000 (  4899 PWs)   bands (ev):

    -8.0491  -6.6916  -4.6299  -3.5728  -2.2504  -1.8535  -0.4213  -0.2433
     0.4460   0.8618   2.1212   2.4559   2.8721   3.4568   3.6838   3.9944

          k = 0.0625 0.3125 0.0000 (  4869 PWs)   bands (ev):

    -7.7292  -6.3741  -4.3639  -4.3158  -3.0343  -1.5426  -1.0155  -0.1218
     0.7441   1.1603   1.6779   2.4977   3.0471   3.1259   3.6500   4.0310

          k = 0.0625 0.3750 0.0000 (  4875 PWs)   bands (ev):

    -7.3392  -5.9870  -5.0922  -3.9330  -3.7567  -1.7283  -1.1641   0.2422
     1.0027   1.1073   1.5229   2.3658   2.8533   3.1888   3.4795   3.6448

          k = 0.0625 0.4375 0.0000 (  4881 PWs)   bands (ev):

    -6.8796  -5.7552  -5.5309  -4.4147  -3.4818  -2.3784  -0.7191   0.3557
     0.6898   1.5335   1.7409   1.9448   2.5987   3.0229   3.2776   3.9008

          k = 0.0625-0.5000 0.0000 (  4898 PWs)   bands (ev):

    -6.3513  -6.3513  -5.0065  -5.0065  -2.9635  -2.9635  -0.2099  -0.2099
     1.1796   1.1796   2.0103   2.0103   2.4771   2.4771   3.7553   3.7553

          k = 0.1250 0.1250 0.0000 (  4909 PWs)   bands (ev):

    -8.3696  -7.0098  -4.9447  -2.1657  -1.7258  -1.7258  -0.4180  -0.4180
     0.1468   1.5482   1.5482   2.8311   2.8311   3.5392   4.1459   4.1459

          k = 0.1250 0.1875 0.0000 (  4904 PWs)   bands (ev):

    -8.1915  -6.8330  -4.7698  -2.6209  -1.9922  -1.5676  -1.2913  -0.2500
     0.3128   0.6828   1.7067   2.9803   3.4172   3.5677   3.9484   3.9781

          k = 0.1250 0.2500 0.0000 (  4892 PWs)   bands (ev):

    -7.9424  -6.5857  -4.5251  -3.4697  -2.1503  -1.7499  -1.3119  -0.1438
    -0.0135   0.5448   1.9044   2.6068   2.9314   3.2686   4.0008   4.2312

          k = 0.1250 0.3125 0.0000 (  4875 PWs)   bands (ev):

    -7.6228  -6.2685  -4.2599  -4.2114  -2.9316  -1.4396  -1.0103  -0.9143
     0.2869   0.8418   1.7377   2.1923   2.3354   3.4844   3.5544   3.9069

          k = 0.1250 0.3750 0.0000 (  4863 PWs)   bands (ev):

    -7.2330  -5.8817  -4.9876  -3.8288  -3.6530  -1.6259  -1.0619  -0.6407
     0.6543   1.0938   1.2020   1.5024   2.6512   2.7983   3.2898   3.9111

          k = 0.1250 0.4375 0.0000 (  4869 PWs)   bands (ev):

    -6.7738  -5.6501  -5.4258  -4.3104  -3.3780  -2.2755  -0.6186  -0.2074
     0.4709   0.8728   1.0854   1.6122   2.1881   2.6916   3.0689   4.0923

          k = 0.1250-0.5000 0.0000 (  4874 PWs)   bands (ev):

    -6.2459  -6.2459  -4.9019  -4.9019  -2.8602  -2.8602  -0.1170  -0.1170
     0.3128   0.3128   1.5688   1.5688   2.1582   2.1582   3.5541   3.5541

          k = 0.1875 0.1875 0.0000 (  4911 PWs)   bands (ev):

    -8.0136  -6.6564  -4.5951  -2.4512  -2.4512  -1.8193  -1.1324  -1.1324
     0.4781   0.8464   0.8464   2.8817   3.5176   3.5177   3.9422   4.2225

          k = 0.1875 0.2500 0.0000 (  4890 PWs)   bands (ev):

    -7.7648  -6.4094  -4.3508  -3.2976  -2.2250  -1.9585  -1.5777  -0.8960
     0.0239   0.7086   1.0710   2.0845   2.7515   3.3812   3.7122   4.1444

          k = 0.1875 0.3125 0.0000 (  4881 PWs)   bands (ev):

    -7.4456  -6.0925  -4.0868  -4.0375  -2.7622  -1.8971  -1.2684  -0.7458
    -0.5919   1.0022   1.3294   1.3307   2.0510   2.6322   3.7906   4.3222

          k = 0.1875 0.3750 0.0000 (  4860 PWs)   bands (ev):

    -7.0562  -5.7061  -4.8135  -3.6552  -3.4807  -1.5255  -1.4560  -0.8924
    -0.2212   0.6346   1.2061   1.3461   1.8488   1.9574   3.3976   3.8645

          k = 0.1875 0.4375 0.0000 (  4874 PWs)   bands (ev):

    -6.5975  -5.4753  -5.2509  -4.1372  -3.2053  -2.1045  -1.0862  -0.4565
     0.0049   0.2151   0.6238   1.2626   1.8346   2.2281   2.8357   3.2631

          k = 0.1875-0.5000 0.0000 (  4874 PWs)   bands (ev):

    -6.0703  -6.0703  -4.7276  -4.7276  -2.6881  -2.6881  -0.5833  -0.5833
     0.0649   0.0649   0.7146   0.7146   2.3001   2.3001   2.7120   2.7120

          k = 0.2500 0.2500 0.0000 (  4889 PWs)   bands (ev):

    -7.5163  -6.1628  -4.1070  -3.0581  -3.0581  -1.7327  -1.7327  -1.3372
     0.2551   0.2551   0.9360   1.2710   2.5741   2.9615   2.9615   4.2601

          k = 0.2500 0.3125 0.0000 (  4892 PWs)   bands (ev):

    -7.1977  -5.8465  -3.8450  -3.7942  -2.7627  -2.5003  -1.4271  -1.0298
    -0.5108   0.5103   0.5473   1.2127   1.8362   2.2388   3.2063   3.7451

          k = 0.2500 0.3750 0.0000 (  4854 PWs)   bands (ev):

    -6.8091  -5.4608  -4.5703  -3.4127  -3.2417  -2.3637  -1.2191  -1.0534
    -0.6607  -0.1865   0.8703   1.0725   1.5978   1.6388   3.0805   3.3362

          k = 0.2500 0.4375 0.0000 (  4880 PWs)   bands (ev):

    -6.3512  -5.2309  -5.0064  -3.8952  -2.9637  -1.9227  -1.8656  -0.8417
    -0.6141  -0.2076   0.4585   0.8019   1.4684   2.0369   2.4635   3.0033

          k = 0.2500-0.5000 0.0000 (  4878 PWs)   bands (ev):

    -5.8248  -5.8248  -4.4841  -4.4841  -2.4476  -2.4476  -1.4138  -1.4138
    -0.1091  -0.1091   0.2851   0.2851   1.9135   1.9135   2.5067   2.5067

          k = 0.3125 0.3125 0.0000 (  4876 PWs)   bands (ev):

    -6.8797  -5.5309  -3.5353  -3.5353  -3.4820  -2.2056  -2.2056  -0.7288
    -0.2511  -0.2107  -0.2107   1.0084   1.5730   2.5108   2.5108   3.0184

          k = 0.3125 0.3750 0.0000 (  4854 PWs)   bands (ev):

    -6.4919  -5.1461  -4.2580  -3.1695  -3.1018  -2.9103  -1.8306  -0.9723
    -0.9151  -0.3443   0.1492   0.3289   1.8466   1.9050   2.3374   2.8187

          k = 0.3125 0.4375 0.0000 (  4868 PWs)   bands (ev):

    -6.0350  -4.9171  -4.6929  -3.5860  -2.7017  -2.6541  -1.6126  -1.5604
    -1.3869  -0.3059   0.0813   0.5381   1.2688   1.7216   2.3090   3.0088

          k = 0.3125-0.5000 0.0000 (  4870 PWs)   bands (ev):

    -5.5098  -5.5098  -4.1721  -4.1721  -2.1907  -2.1907  -2.1394  -2.1394
    -0.8791  -0.8791   0.5311   0.5311   1.2106   1.2106   2.7396   2.7396

          k = 0.3750 0.3750 0.0000 (  4860 PWs)   bands (ev):

    -6.1052  -4.7626  -3.8781  -3.8781  -2.7230  -2.5457  -2.5457  -1.6790
    -0.5464  -0.5464  -0.3718   0.0132   1.6572   2.1840   2.1840   2.2430

          k = 0.3750 0.4375 0.0000 (  4865 PWs)   bands (ev):

    -5.6496  -4.5348  -4.3110  -3.4423  -3.1854  -2.3253  -2.2767  -2.1018
    -1.1861  -1.0124  -0.1184   0.3954   1.0805   1.5821   2.5576   2.6076

          k = 0.3750-0.5000 0.0000 (  4856 PWs)   bands (ev):

    -5.1257  -5.1257  -3.7931  -3.7931  -2.9051  -2.9051  -1.7660  -1.7660
    -1.5877  -1.5877   0.3374   0.3374   1.0702   1.0702   2.8116   2.8116

          k = 0.4375 0.4375 0.0000 (  4898 PWs)   bands (ev):

    -5.1955  -4.0850  -4.0850  -3.8624  -2.9735  -2.7512  -2.7512  -1.8349
    -1.6554  -0.7490  -0.7490   0.2697   1.0037   1.9862   1.9862   2.7453

          k = 0.4375-0.5000 0.0000 (  4882 PWs)   bands (ev):

    -4.6735  -4.6735  -3.5794  -3.5794  -3.3229  -3.3229  -2.2384  -2.2384
    -1.3214  -1.3214  -0.2531  -0.2531   1.4494   1.4494   2.4261   2.4261

          k =-0.5000-0.5000 0.0000 (  4852 PWs)   bands (ev):

    -4.1538  -4.1538  -4.1538  -4.1538  -2.8195  -2.8195  -2.8195  -2.8195
    -0.8164  -0.8164  -0.8164  -0.8164   1.9202   1.9202   1.9202   1.9202

     the Fermi energy is     1.9577 ev

!    total energy              =     -99.58101384 Ry
     Harris-Foulkes estimate   =     -99.58101385 Ry
     estimated scf accuracy    <          4.7E-09 Ry

     The total energy is the sum of the following terms:

     one-electron contribution =    -128.36239549 Ry
     hartree contribution      =      70.85289784 Ry
     xc contribution           =     -79.76864637 Ry
     ewald contribution        =      37.69691949 Ry
     smearing contrib. (-TS)   =       0.00021069 Ry

     convergence has been achieved in  10 iterations

     Forces acting on atoms (Ry/au):

     atom    1 type  1   force =     0.00000000    0.00000000    0.00039331
     atom    2 type  1   force =     0.00000000    0.00000000    0.00039332
     atom    3 type  1   force =     0.00000000    0.00000000   -0.00045634
     atom    4 type  1   force =     0.00000000    0.00000000   -0.00045634
     atom    5 type  1   force =     0.00000000    0.00000000    0.00045635
     atom    6 type  1   force =     0.00000000    0.00000000    0.00045634
     atom    7 type  1   force =     0.00000000    0.00000000   -0.00039332
     atom    8 type  1   force =     0.00000000    0.00000000   -0.00039332

     Total force =     0.001205     Total SCF correction =     0.000101


     entering subroutine stress ...

          total   stress  (Ry/bohr**3)                   (kbar)     P=  -19.57
  -0.00018570   0.00000000   0.00000000        -27.32      0.00      0.00
   0.00000000  -0.00018570   0.00000000          0.00    -27.32      0.00
   0.00000000   0.00000000  -0.00002766          0.00      0.00     -4.07


     bfgs converged in  11 scf cycles and  10 bfgs steps
     (criteria: energy <  1.0E-04, force <  1.0E-03)

     End of BFGS Geometry Optimization

     Final energy   =     -99.5810138442 Ry
Begin final coordinates

ATOMIC_POSITIONS (crystal)
Al       0.000000000   0.000000000  -0.004624794
Al       0.500000000   0.500000000  -0.004624798
Al       0.500000000   0.000000000   0.123900048
Al       0.000000000   0.500000000   0.123900048
Al       0.000000000   0.000000000   0.251099951
Al       0.500000000   0.500000000   0.251099952
Al       0.500000000   0.000000000   0.379624797
Al       0.000000000   0.500000000   0.379624797
End final coordinates



     Writing output data file Al_100_2_2.save

     init_run     :      7.35s CPU      9.98s WALL (       1 calls)
     electrons    :   1020.26s CPU   1415.85s WALL (      11 calls)
     update_pot   :      2.30s CPU      2.46s WALL (      10 calls)
     forces       :     16.84s CPU     17.53s WALL (      11 calls)
     stress       :     36.80s CPU     37.88s WALL (      11 calls)

     Called by init_run:
     wfcinit      :      6.79s CPU      9.39s WALL (       1 calls)
     potinit      :      0.13s CPU      0.15s WALL (       1 calls)

     Called by electrons:
     c_bands      :    843.33s CPU   1165.56s WALL (     107 calls)
     sum_band     :    145.32s CPU    213.84s WALL (     107 calls)
     v_of_rho     :     11.07s CPU     12.16s WALL (     116 calls)
     newd         :      8.11s CPU      8.34s WALL (     116 calls)
     mix_rho      :     13.27s CPU     16.67s WALL (     107 calls)

     Called by c_bands:
     init_us_2    :     13.53s CPU     16.40s WALL (   10665 calls)
     cegterg      :    829.20s CPU   1148.81s WALL (    4815 calls)

     Called by *egterg:
     h_psi        :    594.46s CPU    894.37s WALL (   13724 calls)
     s_psi        :     52.70s CPU     57.85s WALL (   13724 calls)
     g_psi        :      2.38s CPU      2.73s WALL (    8864 calls)
     cdiaghg      :      7.17s CPU      8.61s WALL (   13139 calls)

     Called by h_psi:
     add_vuspsi   :     53.98s CPU     58.31s WALL (   13724 calls)

     General routines
     calbec       :     82.38s CPU     95.06s WALL (   19529 calls)
     fft          :      7.29s CPU      8.92s WALL (    2105 calls)
     ffts         :      8.36s CPU     10.59s WALL (    4021 calls)
     fftw         :    555.26s CPU    882.28s WALL (  436574 calls)
     interpolate  :      1.31s CPU      1.67s WALL (     223 calls)
     davcio       :      0.00s CPU      0.07s WALL (      45 calls)

     Parallel routines
     fft_scatter  :     21.66s CPU     34.34s WALL (  442700 calls)

     PWSCF        : 18m 5.63s CPU    24m45.98s WALL


   This run was terminated on:  21:28: 4  26May2020            

=------------------------------------------------------------------------------=
   JOB DONE.
=------------------------------------------------------------------------------=
