--------------------------------------------------------------------------
[[3068,1],0]: A high-performance Open MPI point-to-point messaging module
was unable to find any relevant network interfaces:

Module: OpenFabrics (openib)
  Host: ubuntu

Another transport will be used instead, although this may result in
lower performance.
--------------------------------------------------------------------------

     Program PWSCF v.5.1 starts on 27May2020 at  2:27:14 

     This program is part of the open-source Quantum ESPRESSO suite
     for quantum simulation of materials; please cite
         "P. Giannozzi et al., J. Phys.:Condens. Matter 21 395502 (2009);
          URL http://www.quantum-espresso.org", 
     in publications or presentations arising from this work. More details at
     http://www.quantum-espresso.org/quote

     Parallel version (MPI), running on     1 processors
     Reading input from Al_100_bulk_16.pw.in

     Current dimensions of program PWSCF are:
     Max number of different atomic species (ntypx) = 10
     Max number of k-points (npk) =  40000
     Max angular momentum in pseudopotentials (lmaxx) =  3

     Subspace diagonalization in iterative solution of the eigenvalue problem:
     a serial algorithm will be used

     Found symmetry operation: I + ( -0.5000 -0.5000  0.0000)
     This is a supercell, fractional translations are disabled

     G-vector sticks info
     --------------------
     sticks:   dense  smooth     PW     G-vecs:    dense   smooth      PW
     Sum         681     553    177               122579    87935   15005



     bravais-lattice index     =            6
     lattice parameter (alat)  =       7.6050  a.u.
     unit-cell volume          =    3958.5867 (a.u.)^3
     number of atoms/cell      =           24
     number of atomic types    =            1
     number of electrons       =        72.00
     number of Kohn-Sham states=           43
     kinetic-energy cutoff     =      30.0000  Ry
     charge density cutoff     =     150.0000  Ry
     convergence threshold     =      1.0E-06
     mixing beta               =       0.3000
     number of iterations used =            8  local-TF  mixing
     Exchange-correlation      =  SLA  PW   PBE  PBE ( 1  4  3  4 0)
     nstep                     =           50


     celldm(1)=   7.605000  celldm(2)=   0.000000  celldm(3)=   9.000000
     celldm(4)=   0.000000  celldm(5)=   0.000000  celldm(6)=   0.000000

     crystal axes: (cart. coord. in units of alat)
               a(1) = (   1.000000   0.000000   0.000000 )  
               a(2) = (   0.000000   1.000000   0.000000 )  
               a(3) = (   0.000000   0.000000   9.000000 )  

     reciprocal axes: (cart. coord. in units 2 pi/alat)
               b(1) = (  1.000000  0.000000  0.000000 )  
               b(2) = (  0.000000  1.000000  0.000000 )  
               b(3) = (  0.000000  0.000000  0.111111 )  


     PseudoPot. # 1 for Al read from file:
     ./Al.pbe-n-van.UPF
     MD5 check sum: b11ded24487aef5bc42d5c7a2e22a7b6
     Pseudo is Ultrasoft + core correction, Zval =  3.0
     Generated by new atomic code, or converted to UPF format
     Using radial grid of  893 points,  2 beta functions with: 
                l(1) =   0
                l(2) =   1
     Q(r) pseudized with  8 coefficients,  rinner =    0.900   0.900   0.900


     atomic species   valence    mass     pseudopotential
        Al             3.00    26.98000     Al( 1.00)

      8 Sym. Ops. (no inversion) found



   Cartesian axes

     site n.     atom                  positions (alat units)
         1           Al  tau(   1) = (   0.0000000   0.0000000   0.0000000  )
         2           Al  tau(   2) = (   0.5000000   0.5000000   0.0000000  )
         3           Al  tau(   3) = (   0.5000000   0.0000000   0.5000000  )
         4           Al  tau(   4) = (   0.0000000   0.5000000   0.5000000  )
         5           Al  tau(   5) = (   0.0000000   0.0000000   1.0000000  )
         6           Al  tau(   6) = (   0.5000000   0.5000000   1.0000000  )
         7           Al  tau(   7) = (   0.5000000   0.0000000   1.5000000  )
         8           Al  tau(   8) = (   0.0000000   0.5000000   1.5000000  )
         9           Al  tau(   9) = (   0.0000000   0.0000000   2.0000000  )
        10           Al  tau(  10) = (   0.5000000   0.5000000   2.0000000  )
        11           Al  tau(  11) = (   0.5000000   0.0000000   2.5000000  )
        12           Al  tau(  12) = (   0.0000000   0.5000000   2.5000000  )
        13           Al  tau(  13) = (   0.0000000   0.0000000   3.0000000  )
        14           Al  tau(  14) = (   0.5000000   0.5000000   3.0000000  )
        15           Al  tau(  15) = (   0.5000000   0.0000000   3.5000000  )
        16           Al  tau(  16) = (   0.0000000   0.5000000   3.5000000  )
        17           Al  tau(  17) = (   0.0000000   0.0000000   4.0000000  )
        18           Al  tau(  18) = (   0.5000000   0.5000000   4.0000000  )
        19           Al  tau(  19) = (   0.5000000   0.0000000   4.5000000  )
        20           Al  tau(  20) = (   0.0000000   0.5000000   4.5000000  )
        21           Al  tau(  21) = (   0.0000000   0.0000000   5.0000000  )
        22           Al  tau(  22) = (   0.5000000   0.5000000   5.0000000  )
        23           Al  tau(  23) = (   0.5000000   0.0000000   5.5000000  )
        24           Al  tau(  24) = (   0.0000000   0.5000000   5.5000000  )

     number of k points=    45  Marzari-Vanderbilt smearing, width (Ry)=  0.0250
                       cart. coord. in units 2pi/alat
        k(    1) = (   0.0000000   0.0000000   0.0000000), wk =   0.0078125
        k(    2) = (   0.0000000   0.0625000   0.0000000), wk =   0.0312500
        k(    3) = (   0.0000000   0.1250000   0.0000000), wk =   0.0312500
        k(    4) = (   0.0000000   0.1875000   0.0000000), wk =   0.0312500
        k(    5) = (   0.0000000   0.2500000   0.0000000), wk =   0.0312500
        k(    6) = (   0.0000000   0.3125000   0.0000000), wk =   0.0312500
        k(    7) = (   0.0000000   0.3750000   0.0000000), wk =   0.0312500
        k(    8) = (   0.0000000   0.4375000   0.0000000), wk =   0.0312500
        k(    9) = (   0.0000000  -0.5000000   0.0000000), wk =   0.0156250
        k(   10) = (   0.0625000   0.0625000   0.0000000), wk =   0.0312500
        k(   11) = (   0.0625000   0.1250000   0.0000000), wk =   0.0625000
        k(   12) = (   0.0625000   0.1875000   0.0000000), wk =   0.0625000
        k(   13) = (   0.0625000   0.2500000   0.0000000), wk =   0.0625000
        k(   14) = (   0.0625000   0.3125000   0.0000000), wk =   0.0625000
        k(   15) = (   0.0625000   0.3750000   0.0000000), wk =   0.0625000
        k(   16) = (   0.0625000   0.4375000   0.0000000), wk =   0.0625000
        k(   17) = (   0.0625000  -0.5000000   0.0000000), wk =   0.0312500
        k(   18) = (   0.1250000   0.1250000   0.0000000), wk =   0.0312500
        k(   19) = (   0.1250000   0.1875000   0.0000000), wk =   0.0625000
        k(   20) = (   0.1250000   0.2500000   0.0000000), wk =   0.0625000
        k(   21) = (   0.1250000   0.3125000   0.0000000), wk =   0.0625000
        k(   22) = (   0.1250000   0.3750000   0.0000000), wk =   0.0625000
        k(   23) = (   0.1250000   0.4375000   0.0000000), wk =   0.0625000
        k(   24) = (   0.1250000  -0.5000000   0.0000000), wk =   0.0312500
        k(   25) = (   0.1875000   0.1875000   0.0000000), wk =   0.0312500
        k(   26) = (   0.1875000   0.2500000   0.0000000), wk =   0.0625000
        k(   27) = (   0.1875000   0.3125000   0.0000000), wk =   0.0625000
        k(   28) = (   0.1875000   0.3750000   0.0000000), wk =   0.0625000
        k(   29) = (   0.1875000   0.4375000   0.0000000), wk =   0.0625000
        k(   30) = (   0.1875000  -0.5000000   0.0000000), wk =   0.0312500
        k(   31) = (   0.2500000   0.2500000   0.0000000), wk =   0.0312500
        k(   32) = (   0.2500000   0.3125000   0.0000000), wk =   0.0625000
        k(   33) = (   0.2500000   0.3750000   0.0000000), wk =   0.0625000
        k(   34) = (   0.2500000   0.4375000   0.0000000), wk =   0.0625000
        k(   35) = (   0.2500000  -0.5000000   0.0000000), wk =   0.0312500
        k(   36) = (   0.3125000   0.3125000   0.0000000), wk =   0.0312500
        k(   37) = (   0.3125000   0.3750000   0.0000000), wk =   0.0625000
        k(   38) = (   0.3125000   0.4375000   0.0000000), wk =   0.0625000
        k(   39) = (   0.3125000  -0.5000000   0.0000000), wk =   0.0312500
        k(   40) = (   0.3750000   0.3750000   0.0000000), wk =   0.0312500
        k(   41) = (   0.3750000   0.4375000   0.0000000), wk =   0.0625000
        k(   42) = (   0.3750000  -0.5000000   0.0000000), wk =   0.0312500
        k(   43) = (   0.4375000   0.4375000   0.0000000), wk =   0.0312500
        k(   44) = (   0.4375000  -0.5000000   0.0000000), wk =   0.0312500
        k(   45) = (  -0.5000000  -0.5000000   0.0000000), wk =   0.0078125

     Dense  grid:   122579 G-vectors     FFT dimensions: (  30,  30, 270)

     Smooth grid:    87935 G-vectors     FFT dimensions: (  27,  27, 240)

     Largest allocated arrays     est. size (Mb)     dimensions
        Kohn-Sham Wavefunctions         7.25 Mb     (   11047,   43)
        NL pseudopotentials            16.18 Mb     (   11047,   96)
        Each V/rho on FFT grid          3.71 Mb     (  243000)
        Each G-vector array             0.94 Mb     (  122579)
        G-vector shells                 0.03 Mb     (    4575)
     Largest temporary arrays     est. size (Mb)     dimensions
        Auxiliary wavefunctions        28.99 Mb     (   11047,  172)
        Each subspace H/S matrix        0.45 Mb     (     172,  172)
        Each <psi_i|beta_j> matrix      0.06 Mb     (      96,   43)
        Arrays for rho mixing          29.66 Mb     (  243000,    8)

     Initial potential from superposition of free atoms

     starting charge   71.94083, renormalised to   72.00000

     negative rho (up, down):  2.854E-05 0.000E+00
     Starting wfc are   96 randomized atomic wfcs

     total cpu time spent up to now is      100.6 secs

     per-process dynamical memory:   404.2 Mb

     Self-consistent Calculation

     iteration #  1     ecut=    30.00 Ry     beta=0.30
     Davidson diagonalization with overlap
     ethr =  1.00E-02,  avg # of iterations =  2.7

     total cpu time spent up to now is      255.9 secs

     total energy              =    -299.11284465 Ry
     Harris-Foulkes estimate   =    -299.16886236 Ry
     estimated scf accuracy    <       2.22592172 Ry

     iteration #  2     ecut=    30.00 Ry     beta=0.30
     Davidson diagonalization with overlap
     ethr =  3.09E-03,  avg # of iterations =  1.0

     total cpu time spent up to now is      355.8 secs

     total energy              =    -298.95097115 Ry
     Harris-Foulkes estimate   =    -299.13159831 Ry
     estimated scf accuracy    <       1.59128277 Ry

     iteration #  3     ecut=    30.00 Ry     beta=0.30
     Davidson diagonalization with overlap
     ethr =  2.21E-03,  avg # of iterations =  2.0

     total cpu time spent up to now is      457.0 secs

     total energy              =    -299.02755525 Ry
     Harris-Foulkes estimate   =    -299.04497948 Ry
     estimated scf accuracy    <       0.14151615 Ry

     iteration #  4     ecut=    30.00 Ry     beta=0.30
     Davidson diagonalization with overlap
     ethr =  1.97E-04,  avg # of iterations =  3.6

     total cpu time spent up to now is      568.9 secs

     total energy              =    -299.03723577 Ry
     Harris-Foulkes estimate   =    -299.03846568 Ry
     estimated scf accuracy    <       0.02122604 Ry

     iteration #  5     ecut=    30.00 Ry     beta=0.30
     Davidson diagonalization with overlap
     ethr =  2.95E-05,  avg # of iterations =  3.9

     total cpu time spent up to now is      676.0 secs

     total energy              =    -299.03230676 Ry
     Harris-Foulkes estimate   =    -299.03803998 Ry
     estimated scf accuracy    <       0.02245047 Ry

     iteration #  6     ecut=    30.00 Ry     beta=0.30
     Davidson diagonalization with overlap
     ethr =  2.95E-05,  avg # of iterations =  1.5

     total cpu time spent up to now is      774.6 secs

     total energy              =    -299.03230086 Ry
     Harris-Foulkes estimate   =    -299.03342468 Ry
     estimated scf accuracy    <       0.03082560 Ry

     iteration #  7     ecut=    30.00 Ry     beta=0.30
     Davidson diagonalization with overlap
     ethr =  2.95E-05,  avg # of iterations =  1.0

     negative rho (up, down):  2.076E-03 0.000E+00

     total cpu time spent up to now is      872.8 secs

     total energy              =    -299.02798530 Ry
     Harris-Foulkes estimate   =    -299.03251075 Ry
     estimated scf accuracy    <       0.03661286 Ry

     iteration #  8     ecut=    30.00 Ry     beta=0.30
     Davidson diagonalization with overlap
     ethr =  2.95E-05,  avg # of iterations =  2.7

     negative rho (up, down):  2.192E-03 0.000E+00

     total cpu time spent up to now is      979.2 secs

     total energy              =    -299.03040157 Ry
     Harris-Foulkes estimate   =    -299.03033453 Ry
     estimated scf accuracy    <       0.01042954 Ry

     iteration #  9     ecut=    30.00 Ry     beta=0.30
     Davidson diagonalization with overlap
     ethr =  1.45E-05,  avg # of iterations =  1.5

     negative rho (up, down):  8.594E-03 0.000E+00

     total cpu time spent up to now is     1078.0 secs

     total energy              =    -299.03026280 Ry
     Harris-Foulkes estimate   =    -299.03049148 Ry
     estimated scf accuracy    <       0.00885805 Ry

     iteration # 10     ecut=    30.00 Ry     beta=0.30
     Davidson diagonalization with overlap
     ethr =  1.23E-05,  avg # of iterations =  1.4

     negative rho (up, down):  2.588E-03 0.000E+00

     total cpu time spent up to now is     1177.1 secs

     total energy              =    -299.03048544 Ry
     Harris-Foulkes estimate   =    -299.03056302 Ry
     estimated scf accuracy    <       0.00098479 Ry

     iteration # 11     ecut=    30.00 Ry     beta=0.30
     Davidson diagonalization with overlap
     ethr =  1.37E-06,  avg # of iterations =  3.7

     negative rho (up, down):  3.289E-04 0.000E+00

     total cpu time spent up to now is     1285.6 secs

     total energy              =    -299.03039792 Ry
     Harris-Foulkes estimate   =    -299.03055853 Ry
     estimated scf accuracy    <       0.00215443 Ry

     iteration # 12     ecut=    30.00 Ry     beta=0.30
     Davidson diagonalization with overlap
     ethr =  1.37E-06,  avg # of iterations =  3.0

     negative rho (up, down):  1.353E-03 0.000E+00

     total cpu time spent up to now is     1405.8 secs

     total energy              =    -299.03050468 Ry
     Harris-Foulkes estimate   =    -299.03059917 Ry
     estimated scf accuracy    <       0.00093473 Ry

     iteration # 13     ecut=    30.00 Ry     beta=0.30
     Davidson diagonalization with overlap
     ethr =  1.30E-06,  avg # of iterations =  1.9

     negative rho (up, down):  5.724E-04 0.000E+00

     total cpu time spent up to now is     1508.6 secs

     total energy              =    -299.03057015 Ry
     Harris-Foulkes estimate   =    -299.03055181 Ry
     estimated scf accuracy    <       0.00002486 Ry

     iteration # 14     ecut=    30.00 Ry     beta=0.30
     Davidson diagonalization with overlap
     ethr =  3.45E-08,  avg # of iterations =  4.0

     negative rho (up, down):  3.515E-05 0.000E+00

     total cpu time spent up to now is     1660.2 secs

     total energy              =    -299.03052448 Ry
     Harris-Foulkes estimate   =    -299.03060192 Ry
     estimated scf accuracy    <       0.00071710 Ry

     iteration # 15     ecut=    30.00 Ry     beta=0.30
     Davidson diagonalization with overlap
     ethr =  3.45E-08,  avg # of iterations =  3.7

     negative rho (up, down):  1.191E-05 0.000E+00

     total cpu time spent up to now is     1809.1 secs

     total energy              =    -299.03056781 Ry
     Harris-Foulkes estimate   =    -299.03056914 Ry
     estimated scf accuracy    <       0.00001920 Ry

     iteration # 16     ecut=    30.00 Ry     beta=0.30
     Davidson diagonalization with overlap
     ethr =  2.67E-08,  avg # of iterations =  1.0

     negative rho (up, down):  2.207E-05 0.000E+00

     total cpu time spent up to now is     1908.4 secs

     total energy              =    -299.03056791 Ry
     Harris-Foulkes estimate   =    -299.03056817 Ry
     estimated scf accuracy    <       0.00002767 Ry

     iteration # 17     ecut=    30.00 Ry     beta=0.30
     Davidson diagonalization with overlap
     ethr =  2.67E-08,  avg # of iterations =  2.0

     total cpu time spent up to now is     2013.6 secs

     End of self-consistent calculation

          k = 0.0000 0.0000 0.0000 ( 11047 PWs)   bands (ev):

    -7.2275  -7.0427  -6.7431  -6.3285  -5.7976  -5.1534  -4.4029  -3.5531
    -2.6023  -1.5582  -0.4253   0.8687   1.0624   1.0624   1.2323   1.2323
     1.4769   1.5075   1.5075   1.8889   1.8889   2.3793   2.3793   2.4212
     2.4213   2.5978   2.5978   2.8820   2.8820   2.9776   2.9776   3.2683
     3.2683   3.3940   3.6780   3.6780   3.7405   3.7405   4.4402   4.4402
     4.4762   4.4762   4.7171

          k = 0.0000 0.0625 0.0000 ( 11033 PWs)   bands (ev):

    -7.1917  -7.0069  -6.7074  -6.2930  -5.7622  -5.1181  -4.3678  -3.5181
    -2.5676  -1.5236  -0.3906   0.4889   0.6617   0.9031   0.9422   1.0951
     1.2649   1.3301   1.5101   1.5403   1.8270   1.9220   2.4123   2.4240
     2.4591   2.6319   2.9171   3.0105   3.0550   3.0964   3.2294   3.3451
     3.4273   3.5196   3.7106   3.7113   3.9106   4.0694   4.2435   4.5093
     4.6451   4.7499   4.8803

          k = 0.0000 0.1250 0.0000 ( 11039 PWs)   bands (ev):

    -7.0844  -6.8997  -6.6004  -6.1863  -5.6558  -5.0122  -4.2623  -3.4132
    -2.4631  -1.4198  -0.4172  -0.2882  -0.2412   0.0434   0.4371   0.9409
     1.0050   1.1934   1.3631   1.5510   1.6095   1.6386   2.0204   2.2557
     2.5109   2.5574   2.7352   2.9350   3.1092   3.1499   3.3978   3.5272
     3.8099   3.9961   4.0747   4.1427   4.3157   4.5138   4.6078   4.6389
     4.8473   4.9048   5.0181

          k = 0.0000 0.1875 0.0000 ( 11041 PWs)   bands (ev):

    -6.9056  -6.7212  -6.4223  -6.0086  -5.4787  -4.8358  -4.0868  -3.2387
    -2.2895  -1.3181  -1.2473  -1.1396  -0.8521  -0.4544  -0.1173   0.0546
     0.6717   1.1748   1.3573   1.3889   1.5276   1.7748   1.8031   2.1846
     2.1923   2.6750   2.7275   2.8656   3.1067   3.1883   3.2734   3.6920
     3.7124   3.9740   4.1620   4.1978   4.7539   4.7720   5.0067   5.2536
     5.3456   5.4115   5.5334

          k = 0.0000 0.2500 0.0000 ( 11029 PWs)   bands (ev):

    -6.6558  -6.4717  -6.1732  -5.7602  -5.2312  -4.5892  -3.8415  -2.9946
    -2.1699  -2.0470  -1.9909  -1.7009  -1.3002  -1.0066  -0.7869  -0.1643
     0.1214   0.5599   1.3775   1.4122   1.5876   1.7576   2.0068   2.0332
     2.2799   2.4147   2.9051   2.9488   3.1409   3.1798   3.5032   3.6404
     3.9054   3.9204   4.2034   4.3991   4.4579   5.0012   5.0107   5.2229
     5.5732   5.7940   5.8388

          k = 0.0000 0.3125 0.0000 ( 10979 PWs)   bands (ev):

    -6.3352  -6.1514  -5.8535  -5.4413  -4.9134  -4.2728  -3.5264  -2.9624
    -2.7827  -2.6809  -2.4914  -2.0880  -1.7349  -1.5716  -0.9451  -0.6969
    -0.2155   0.4280   0.6094   1.5284   1.7163   1.8828   2.0530   2.3042
     2.3282   2.5198   2.7099   3.2007   3.2621   3.3222   3.7991   3.8231
     3.8283   4.2014   4.2050   4.4992   4.6901   4.9723   5.0377   5.2079
     5.2673   5.2972   5.4831

          k = 0.0000 0.3750 0.0000 ( 10950 PWs)   bands (ev):

    -5.9441  -5.7608  -5.4638  -5.0527  -4.5261  -3.8871  -3.6923  -3.5116
    -3.2188  -3.1426  -2.8136  -2.2992  -2.2944  -1.6646  -1.3555  -0.9311
    -0.3202  -0.1010   0.8009   0.8261   1.8383   2.0854   2.2446   2.4148
     2.6675   2.6901   2.9086   3.0719   3.5626   3.5708   3.9154   4.1608
     4.1769   4.3278   4.3475   4.5176   4.5255   4.5649   4.7708   4.7929
     4.8607   5.0835   5.1747

          k = 0.0000 0.4375 0.0000 ( 10974 PWs)   bands (ev):

    -5.4836  -5.3008  -5.0046  -4.5948  -4.3567  -4.1752  -4.0697  -3.8812
    -3.4743  -3.4325  -2.9530  -2.6900  -2.3202  -1.8490  -1.5830  -0.9085
    -0.7488   0.1231   0.1836   1.2048   1.2395   2.3039   2.5174   2.6714
     2.8416   3.0956   3.1172   3.4994   3.5033   3.7230   3.8933   3.9897
     4.1288   4.1685   4.1885   4.3364   4.5505   4.5876   4.6076   4.7592
     5.0070   5.0407   5.2948

          k = 0.0000-0.5000 0.0000 ( 10974 PWs)   bands (ev):

    -4.9542  -4.9541  -4.7720  -4.7719  -4.4768  -4.4767  -4.0684  -4.0683
    -3.5450  -3.5449  -2.9098  -2.9097  -2.1698  -2.1697  -1.3318  -1.3318
    -0.3949  -0.3948   0.6321   0.6322   1.7418   1.7419   3.0046   3.0047
     3.1642   3.1643   3.3344   3.3345   3.5872   3.5872   3.6098   3.6099
     3.9921   3.9922   4.4823   4.4824   4.5539   4.5539   4.7970   4.7971
     5.0799   5.0800   5.0983

          k = 0.0625 0.0625 0.0000 ( 11047 PWs)   bands (ev):

    -7.1559  -6.9712  -6.6718  -6.2574  -5.7267  -5.0828  -4.3326  -3.4832
    -2.5328  -1.4890  -0.3564   0.5222   0.5222   0.6951   0.6951   0.9372
     0.9752   0.9752   1.3629   1.3629   1.5432   1.8591   1.8591   2.4661
     2.4661   3.0888   3.0888   3.1695   3.1695   3.2687   3.2687   3.4605
     3.5322   3.5322   3.9118   3.9118   3.9901   3.9901   4.4609   4.4609
     4.7821   4.9195   4.9195

          k = 0.0625 0.1250 0.0000 ( 11040 PWs)   bands (ev):

    -7.0486  -6.8640  -6.5648  -6.1508  -5.6204  -4.9769  -4.2272  -3.3783
    -2.4282  -1.3851  -0.3829  -0.2539  -0.2076   0.0768   0.4700   0.6224
     0.7949   0.9735   1.0390   1.0750   1.4628   1.5793   1.6425   1.9696
     2.2843   2.5958   3.0974   3.1932   3.2827   3.3569   3.5597   3.6584
     3.8802   4.0729   4.1780   4.2357   4.3408   4.5742   4.6275   4.8778
     4.8779   5.0567   5.1261

          k = 0.0625 0.1875 0.0000 ( 11046 PWs)   bands (ev):

    -6.8699  -6.6855  -6.3867  -5.9732  -5.4434  -4.8005  -4.0517  -3.2038
    -2.2547  -1.2835  -1.2126  -1.1056  -0.8184  -0.4208  -0.0832   0.0880
     0.7034   0.7898   0.9617   1.2086   1.2417   1.4099   1.6456   1.8079
     2.0908   2.2893   2.7466   3.1315   3.3532   3.4489   3.5455   3.7229
     3.7590   4.2495   4.2729   4.2749   4.7521   5.0305   5.1391   5.2595
     5.3594   5.3856   5.5505

          k = 0.0625 0.2500 0.0000 ( 11029 PWs)   bands (ev):

    -6.6201  -6.4360  -6.1377  -5.7248  -5.1959  -4.5541  -3.8064  -2.9597
    -2.1353  -2.0121  -1.9563  -1.6663  -1.2658  -0.9719  -0.7529  -0.1309
     0.1553   0.5919   1.0225   1.1954   1.3818   1.4456   1.5051   1.8556
     2.0397   2.3486   2.3770   2.9776   3.3009   3.5959   3.6865   3.7347
     3.9451   4.1374   4.4498   4.4970   4.5525   4.9883   5.1735   5.3031
     5.3645   5.5535   5.5862

          k = 0.0625 0.3125 0.0000 ( 10965 PWs)   bands (ev):

    -6.2996  -6.1158  -5.8180  -5.4060  -4.8782  -4.2377  -3.4915  -2.9277
    -2.7479  -2.6461  -2.4566  -2.0534  -1.7006  -1.5371  -0.9108  -0.6630
    -0.1818   0.4615   0.6413   1.3226   1.4728   1.5795   1.7491   1.7728
     2.1848   2.3372   2.5860   2.6728   3.2739   3.6122   3.8662   3.9813
     4.1734   4.1881   4.4108   4.6142   4.6626   4.7808   4.7952   4.9570
     4.9911   5.3067   5.3426

          k = 0.0625 0.3750 0.0000 ( 10961 PWs)   bands (ev):

    -5.9087  -5.7254  -5.4284  -5.0174  -4.4909  -3.8520  -3.6574  -3.4767
    -3.1841  -3.1076  -2.7790  -2.2644  -2.2599  -1.6301  -1.3211  -0.8966
    -0.2863  -0.0671   0.8342   0.8581   1.6829   1.8550   1.8596   2.1167
     2.1804   2.5419   2.7001   2.9794   3.0362   3.6410   3.7977   3.9882
     4.0468   4.2699   4.3389   4.4861   4.5078   4.6448   4.6567   4.7711
     4.7931   5.1533   5.1633

          k = 0.0625 0.4375 0.0000 ( 10967 PWs)   bands (ev):

    -5.4482  -5.2655  -4.9693  -4.5596  -4.3216  -4.1401  -4.0347  -3.8462
    -3.4394  -3.3976  -2.9183  -2.6553  -2.2856  -1.8145  -1.5486  -0.8743
    -0.7147   0.1568   0.2171   1.2357   1.2718   2.1185   2.2182   2.4305
     2.5386   2.5887   2.9723   3.1256   3.2015   3.3684   3.4614   3.6122
     3.6446   4.0312   4.0546   4.1938   4.5252   4.7119   4.7867   4.9097
     4.9808   5.1287   5.1965

          k = 0.0625-0.5000 0.0000 ( 10986 PWs)   bands (ev):

    -4.9189  -4.9189  -4.7368  -4.7367  -4.4417  -4.4416  -4.0333  -4.0332
    -3.5102  -3.5101  -2.8750  -2.8750  -2.1350  -2.1350  -1.2975  -1.2974
    -0.3611  -0.3610   0.6652   0.6652   1.7709   1.7710   2.5952   2.5952
     2.8084   2.8085   3.0751   3.0752   3.0892   3.0893   3.4671   3.4672
     3.6221   3.6222   3.9655   3.9656   4.5702   4.5703   5.0541   5.0542
     5.2756   5.2756   5.3732

          k = 0.1250 0.1250 0.0000 ( 11037 PWs)   bands (ev):

    -6.9413  -6.7569  -6.4579  -6.0442  -5.5142  -4.8711  -4.1219  -3.2735
    -2.3242  -1.2818  -0.2814  -0.2814  -0.1515  -0.1062  -0.1062   0.1776
     0.1776   0.5703   0.5703   1.0715   1.0715   1.1407   1.6911   1.6911
     1.7416   2.4235   2.4235   3.2192   3.2192   3.6562   4.0997   4.0997
     4.2720   4.2720   4.4570   4.4570   4.6878   4.6878   4.9645   5.1518
     5.1520   5.2105   5.2106

          k = 0.1250 0.1875 0.0000 ( 11030 PWs)   bands (ev):

    -6.7628  -6.5786  -6.2799  -5.8667  -5.3373  -4.6948  -3.9465  -3.0991
    -2.1507  -1.1802  -1.1096  -1.0029  -0.7160  -0.3196  -0.1120   0.0189
     0.0616   0.1889   0.3455   0.7379   0.7987   1.2550   1.3098   1.5143
     1.8941   1.9072   2.3584   2.5863   3.2491   3.4024   3.8111   4.1863
     4.3239   4.4520   4.5893   4.9692   5.0427   5.2230   5.2709   5.3204
     5.4382   5.4960   5.5261

          k = 0.1250 0.2500 0.0000 ( 11008 PWs)   bands (ev):

    -6.5132  -6.3292  -6.0311  -5.6185  -5.0899  -4.4485  -3.7014  -2.8552
    -2.0314  -1.9083  -1.8523  -1.5631  -1.1631  -0.8689  -0.6510  -0.0315
     0.1250   0.2574   0.2985   0.5820   0.6807   0.9926   1.4095   1.5461
     1.6097   2.1087   2.1386   2.4479   2.8168   3.4439   3.6239   3.9729
     4.4647   4.5274   4.5318   4.5420   4.6557   4.8494   4.9615   5.1758
     5.2363   5.4521   5.5194

          k = 0.1250 0.3125 0.0000 ( 10981 PWs)   bands (ev):

    -6.1929  -6.0093  -5.7117  -5.3000  -4.7725  -4.1324  -3.3867  -2.8235
    -2.6438  -2.5421  -2.3526  -1.9497  -1.5972  -1.4338  -0.8084  -0.5604
    -0.0819   0.4284   0.5629   0.6028   0.7200   0.9105   1.2645   1.7037
     1.8022   1.8469   2.4075   2.4355   2.6891   3.1226   3.6089   3.7513
     3.8147   3.9515   4.1002   4.4400   4.4901   4.7467   4.8849   4.9906
     5.1897   5.2525   5.4684

          k = 0.1250 0.3750 0.0000 ( 10969 PWs)   bands (ev):

    -5.8023  -5.6191  -5.3223  -4.9117  -4.3855  -3.7470  -3.5526  -3.3720
    -3.0794  -3.0030  -2.6746  -2.1604  -2.1559  -1.5267  -1.2181  -0.7944
    -0.1845   0.0328   0.7985   0.9107   0.9339   1.0169   1.2513   1.6754
     2.0043   2.1669   2.2024   2.7709   2.7957   2.9621   3.0947   3.1304
     3.4091   3.4825   3.7986   4.2867   4.2950   4.3334   4.7658   4.9024
     4.9093   5.2096   5.3701

          k = 0.1250 0.4375 0.0000 ( 10969 PWs)   bands (ev):

    -5.3422  -5.1596  -4.8636  -4.4542  -4.2163  -4.0350  -3.9295  -3.7412
    -3.3347  -3.2928  -2.8138  -2.5511  -2.1815  -1.7111  -1.4451  -0.7717
    -0.6123   0.2576   0.3164   1.2213   1.3282   1.3668   1.4065   1.7377
     2.1020   2.2648   2.4673   2.5035   2.5996   2.7084   2.7804   3.1606
     3.2091   3.2332   3.6684   3.7026   3.9505   4.2647   4.2777   4.7494
     4.9705   5.1829   5.6051

          k = 0.1250-0.5000 0.0000 ( 10954 PWs)   bands (ev):

    -4.8133  -4.8132  -4.6312  -4.6312  -4.3363  -4.3363  -3.9283  -3.9282
    -3.4055  -3.4054  -2.7707  -2.7707  -2.0313  -2.0312  -1.1943  -1.1942
    -0.2593  -0.2592   0.7629   0.7630   1.7335   1.7336   1.7789   1.7790
     2.0296   2.0296   2.2162   2.2162   2.6019   2.6019   3.0833   3.0834
     3.1919   3.1920   3.6556   3.6557   3.7747   3.7747   4.4237   4.4237
     5.2309   5.2310   5.5745

          k = 0.1875 0.1875 0.0000 ( 11009 PWs)   bands (ev):

    -6.5845  -6.4004  -6.1022  -5.6893  -5.1605  -4.5188  -3.7714  -2.9247
    -1.9774  -1.0092  -1.0092  -0.9376  -0.8323  -0.8323  -0.5461  -0.5461
    -0.1504  -0.1504   0.1892   0.3546   0.3546   0.9811   0.9811   1.4782
     1.7201   1.7201   2.0725   2.5242   2.5242   3.4330   3.4330   3.9057
     4.4274   4.4274   4.4889   4.4907   4.8017   5.1889   5.3968   5.4475
     5.4476   5.6278   5.6929

          k = 0.1875 0.2500 0.0000 ( 11000 PWs)   bands (ev):

    -6.3352  -6.1515  -5.8536  -5.4414  -4.9134  -4.2728  -3.5264  -2.6811
    -1.8585  -1.7352  -1.6800  -1.3915  -0.9927  -0.7696  -0.6974  -0.5949
    -0.4808  -0.3085   0.0866   0.1329   0.4267   0.6084   0.8554   1.2500
     1.7031   1.7114   1.9489   2.3032   2.6024   2.7732   3.4958   3.5694
     3.7064   3.7219   3.9937   4.3217   4.3847   4.5853   4.7875   4.8862
     5.4667   5.6202   5.6292

          k = 0.1875 0.3125 0.0000 ( 10987 PWs)   bands (ev):

    -6.0153  -5.8318  -5.5346  -5.1233  -4.5965  -3.9570  -3.2121  -2.6500
    -2.4703  -2.3684  -2.1794  -1.7773  -1.4247  -1.2627  -0.6401  -0.4627
    -0.3896  -0.2880  -0.0023   0.0766   0.4111   0.7306   0.8232   1.0177
     1.5341   1.8536   1.9999   2.2464   2.5970   2.7896   2.8624   2.9590
     3.0585   3.2388   3.6291   3.9536   3.9702   4.1267   4.5847   4.7363
     4.9675   5.1870   5.4496

          k = 0.1875 0.3750 0.0000 ( 10952 PWs)   bands (ev):

    -5.6252  -5.4422  -5.1457  -4.7355  -4.2099  -3.5721  -3.3782  -3.1978
    -2.9055  -2.8290  -2.5011  -1.9873  -1.9831  -1.3550  -1.0463  -0.6252
    -0.0893  -0.0149   0.0863   0.1826   0.3943   0.7519   1.0969   1.1695
     1.2934   1.9024   2.0181   2.1602   2.2654   2.4491   2.5431   2.6217
     2.9187   2.9752   3.2364   3.4345   3.4561   4.0462   4.2810   4.5941
     4.7391   4.9559   5.0179

          k = 0.1875 0.4375 0.0000 ( 10952 PWs)   bands (ev):

    -5.1656  -4.9831  -4.6875  -4.2785  -4.0411  -3.8600  -3.7545  -3.5666
    -3.1605  -3.1184  -2.6402  -2.3775  -2.0088  -1.5385  -1.2737  -0.6010
    -0.4436   0.3510   0.4239   0.4459   0.5626   0.8058   1.2327   1.4242
     1.4512   1.5364   1.7151   1.7278   1.9107   2.2981   2.3334   2.6357
     2.7728   2.8717   3.0488   3.3363   3.4656   3.8554   3.9000   4.1277
     4.4575   4.7953   4.9380

          k = 0.1875-0.5000 0.0000 ( 10962 PWs)   bands (ev):

    -4.6373  -4.6372  -4.4555  -4.4554  -4.1609  -4.1608  -3.7533  -3.7532
    -3.2311  -3.2310  -2.5971  -2.5970  -1.8586  -1.8585  -1.0231  -1.0231
    -0.0914  -0.0913   0.8385   0.8386   0.9300   0.9301   1.0290   1.0290
     1.3613   1.3613   1.7292   1.7293   2.0691   2.0692   2.2292   2.2293
     2.8414   2.8414   3.3128   3.3129   3.5878   3.5879   3.8704   3.8705
     4.3902   4.3903   5.2733

          k = 0.2500 0.2500 0.0000 ( 10971 PWs)   bands (ev):

    -6.0863  -5.9028  -5.6054  -5.1939  -4.6668  -4.0271  -3.2819  -2.4378
    -1.6175  -1.6175  -1.4936  -1.4395  -1.4395  -1.1516  -1.1516  -0.7536
    -0.7536  -0.4579  -0.2456  -0.2456   0.3849   0.3849   0.6627   1.1251
     1.1251   1.9323   1.9345   1.9345   2.5314   2.7297   2.8499   2.8499
     2.8992   3.1791   3.5701   3.8559   3.8559   4.0679   4.5222   4.6778
     4.9433   4.9433   5.3918

          k = 0.2500 0.3125 0.0000 ( 10980 PWs)   bands (ev):

    -5.7669  -5.5837  -5.2870  -4.8763  -4.3503  -3.7119  -2.9681  -2.4073
    -2.2280  -2.1259  -1.9379  -1.5371  -1.3082  -1.1839  -1.1323  -1.0228
    -0.8444  -0.4468  -0.4059  -0.1513   0.0776   0.3218   0.7181   0.9616
     1.1684   1.4231   1.8915   2.0719   2.1412   2.2525   2.3171   2.4191
     2.7924   2.8460   3.0452   3.2070   3.3124   3.9249   4.0710   4.2836
     4.6175   4.8317   5.1578

          k = 0.2500 0.3750 0.0000 ( 10944 PWs)   bands (ev):

    -5.3775  -5.1948  -4.8988  -4.4892  -3.9644  -3.3276  -3.1343  -2.9541
    -2.6623  -2.5857  -2.2587  -1.7455  -1.7420  -1.1167  -0.9304  -0.8066
    -0.7552  -0.4681  -0.3963  -0.0534   0.2201   0.3620   0.5450   1.0733
     1.2331   1.2531   1.3850   1.5206   1.7202   1.7886   2.1086   2.3989
     2.5796   2.6045   2.6767   3.1409   3.2760   3.4975   3.5201   3.9421
     4.5209   4.7540   4.7552

          k = 0.2500 0.4375 0.0000 ( 10976 PWs)   bands (ev):

    -4.9187  -4.7365  -4.4413  -4.0330  -3.7962  -3.6153  -3.5098  -3.3223
    -2.9168  -2.8749  -2.3976  -2.1351  -1.7676  -1.2980  -1.0352  -0.4876
    -0.3640  -0.3113  -0.2230  -0.0032   0.3583   0.5767   0.6630   0.7629
     0.7697   0.8993   1.1013   1.4716   1.5110   1.7580   1.8005   1.9731
     2.2331   2.5867   2.8393   3.0473   3.0710   3.3355   3.6067   3.8940
     4.1407   4.2133   4.6246

          k = 0.2500-0.5000 0.0000 ( 10962 PWs)   bands (ev):

    -4.3913  -4.3913  -4.2098  -4.2097  -3.9156  -3.9155  -3.5086  -3.5085
    -2.9871  -2.9871  -2.3544  -2.3543  -1.6176  -1.6175  -0.7851  -0.7850
     0.0222   0.0223   0.1108   0.1109   0.2313   0.2314   0.4790   0.4790
     0.9056   0.9056   1.1992   1.1993   1.4033   1.4034   2.0099   2.0100
     2.3032   2.3033   2.7277   2.7278   3.5365   3.5365   3.5722   3.5723
     4.1301   4.1302   4.4815

          k = 0.3125 0.3125 0.0000 ( 10986 PWs)   bands (ev):

    -5.4483  -5.2654  -4.9692  -4.5595  -4.0346  -3.3975  -2.6552  -2.0956
    -2.0956  -1.9172  -1.9172  -1.8148  -1.6283  -1.6283  -1.2288  -1.2288
    -0.8753  -0.7183  -0.7183  -0.0847  -0.0847   0.1522   0.6550   0.6550
     1.1683   1.1865   1.4548   1.4686   1.4686   1.6557   2.0444   2.3879
     2.3879   2.5141   2.6111   3.0749   3.2121   3.3988   3.3988   3.8795
     4.4932   4.4932   4.6921

          k = 0.3125 0.3750 0.0000 ( 10964 PWs)   bands (ev):

    -5.0596  -4.8773  -4.5819  -4.1732  -3.6495  -3.0138  -2.8212  -2.6416
    -2.3505  -2.2735  -1.9484  -1.7162  -1.5397  -1.4357  -1.4321  -1.2505
    -0.8518  -0.8127  -0.5006  -0.3260  -0.0811   0.3130   0.4449   0.5291
     0.6392   0.7639   0.9697   1.0232   1.3412   1.6657   1.6703   1.8433
     1.8560   2.4579   2.6467   2.8141   2.9137   3.2080   3.4747   3.6772
     3.8948   4.0141   4.7693

          k = 0.3125 0.4375 0.0000 ( 10952 PWs)   bands (ev):

    -4.6019  -4.4201  -4.1255  -3.7180  -3.4818  -3.3012  -3.1958  -3.0087
    -2.6045  -2.5622  -2.0865  -1.8246  -1.4593  -1.2688  -1.0924  -0.9907
    -0.8046  -0.7360  -0.3895  -0.1771  -0.0913   0.0306   0.0308   0.2024
     0.2811   0.7068   0.7396   0.9953   1.0477   1.2059   1.4572   1.8130
     2.0647   2.1022   2.2753   2.5326   3.1672   3.1936   3.3428   3.3733
     3.9335   4.1972   4.2904

          k = 0.3125-0.5000 0.0000 ( 10950 PWs)   bands (ev):

    -4.0757  -4.0756  -3.8945  -3.8944  -3.6009  -3.6008  -3.1947  -3.1946
    -2.6745  -2.6744  -2.0435  -2.0434  -1.3096  -1.3095  -0.7562  -0.7562
    -0.5791  -0.5790  -0.4943  -0.4942  -0.2713  -0.2713   0.0933   0.0933
     0.4900   0.4900   0.6330   0.6331   1.2467   1.2467   1.4884   1.4885
     1.9708   1.9709   2.5725   2.5726   2.8107   2.8108   3.6326   3.6327
     3.9534   3.9535   4.3618

          k = 0.3750 0.3750 0.0000 ( 10962 PWs)   bands (ev):

    -4.6721  -4.4903  -4.1957  -3.7880  -3.2655  -2.6315  -2.4394  -2.4394
    -2.2606  -2.2606  -1.9708  -1.9708  -1.8934  -1.5700  -1.5700  -1.0593
    -1.0577  -1.0577  -0.4225  -0.4225  -0.2436  -0.1587  -0.0360   0.2149
     0.3166   0.3166   0.6403   0.9272   1.1332   1.1332   1.1398   1.7472
     2.0350   2.0552   2.0552   2.4676   3.0690   3.0690   3.2777   3.3068
     3.8680   4.1668   4.1668

          k = 0.3750 0.4375 0.0000 ( 10953 PWs)   bands (ev):

    -4.2156  -4.0342  -3.7404  -3.3338  -3.0983  -2.9184  -2.8131  -2.6269
    -2.2240  -2.1815  -1.9898  -1.8129  -1.7066  -1.5229  -1.4469  -1.1234
    -1.0854  -0.8912  -0.7138  -0.6302  -0.5968  -0.4059  -0.3511  -0.0398
     0.0408   0.3529   0.4922   0.4988   0.7547   1.1134   1.3533   1.4005
     1.5900   1.8386   2.3793   2.4384   2.5502   2.6796   3.4128   3.5013
     3.6330   3.8225   4.2304

          k = 0.3750-0.5000 0.0000 ( 10952 PWs)   bands (ev):

    -3.6908  -3.6908  -3.5101  -3.5100  -3.2172  -3.2171  -2.8121  -2.8120
    -2.2936  -2.2935  -1.6658  -1.6657  -1.4727  -1.4726  -1.2960  -1.2959
    -1.0075  -1.0074  -0.9409  -0.9408  -0.5923  -0.5922  -0.1688  -0.1688
    -0.0049  -0.0048   0.5376   0.5377   0.8446   0.8447   1.2568   1.2569
     1.8634   1.8635   2.0765   2.0766   2.9677   2.9678   2.9962   2.9963
     4.0012   4.0013   4.2333

          k = 0.4375 0.4375 0.0000 ( 10986 PWs)   bands (ev):

    -3.7606  -3.5797  -3.2867  -2.8814  -2.6468  -2.6468  -2.4673  -2.4673
    -2.3627  -2.1769  -2.1769  -1.7754  -1.7754  -1.7346  -1.5410  -1.3642
    -1.2622  -1.2622  -1.0756  -1.0090  -0.6601  -0.6263  -0.6263  -0.2354
    -0.0742   0.1120   0.1120   0.4696   0.7769   0.9308   0.9308   1.1891
     1.7963   1.8545   1.8545   2.0097   2.8698   2.8698   2.9009   2.9305
     3.9362   3.9695   3.9695

          k = 0.4375-0.5000 0.0000 ( 10998 PWs)   bands (ev):

    -3.2374  -3.2373  -3.0571  -3.0570  -2.7653  -2.7652  -2.3621  -2.3620
    -2.1271  -2.1270  -1.9500  -1.9500  -1.8441  -1.8440  -1.6601  -1.6600
    -1.2598  -1.2597  -1.2220  -1.2220  -0.7328  -0.7327  -0.4867  -0.4866
    -0.0962  -0.0961   0.3560   0.3561   0.6194   0.6194   1.2655   1.2656
     1.4562   1.4563   2.2452   2.2453   2.4175   2.4175   3.2796   3.2797
     3.5012   3.5012   4.3762

          k =-0.5000-0.5000 0.0000 ( 10956 PWs)   bands (ev):

    -2.7160  -2.7159  -2.7159  -2.7159  -2.5365  -2.5364  -2.5364  -2.5363
    -2.2456  -2.2456  -2.2456  -2.2455  -1.8441  -1.8440  -1.8440  -1.8439
    -1.3303  -1.3303  -1.3303  -1.3302  -0.6940  -0.6939  -0.6939  -0.6938
     0.0437   0.0438   0.0438   0.0438   0.8631   0.8632   0.8632   0.8633
     1.7874   1.7874   1.7874   1.7875   2.8033   2.8034   2.8034   2.8035
     3.9037   3.9038   3.9039

     the Fermi energy is     3.9730 ev

!    total energy              =    -299.03056904 Ry
     Harris-Foulkes estimate   =    -299.03056926 Ry
     estimated scf accuracy    <       0.00000019 Ry

     The total energy is the sum of the following terms:

     one-electron contribution =   -1355.36827393 Ry
     hartree contribution      =     702.94105966 Ry
     xc contribution           =    -240.39792571 Ry
     ewald contribution        =     593.79416567 Ry
     smearing contrib. (-TS)   =       0.00040526 Ry

     convergence has been achieved in  17 iterations

     Forces acting on atoms (Ry/au):

     atom    1 type  1   force =     0.00000000    0.00000000   -0.00378096
     atom    2 type  1   force =     0.00000000    0.00000000   -0.00377799
     atom    3 type  1   force =     0.00000000    0.00000000    0.00185897
     atom    4 type  1   force =     0.00000000    0.00000000    0.00185897
     atom    5 type  1   force =     0.00000000    0.00000000    0.00060580
     atom    6 type  1   force =     0.00000000    0.00000000    0.00059873
     atom    7 type  1   force =     0.00000000    0.00000000    0.00087448
     atom    8 type  1   force =     0.00000000    0.00000000    0.00087448
     atom    9 type  1   force =     0.00000000    0.00000000   -0.00014330
     atom   10 type  1   force =     0.00000000    0.00000000   -0.00013601
     atom   11 type  1   force =     0.00000000    0.00000000   -0.00022914
     atom   12 type  1   force =     0.00000000    0.00000000   -0.00022914
     atom   13 type  1   force =     0.00000000    0.00000000    0.00022637
     atom   14 type  1   force =     0.00000000    0.00000000    0.00023091
     atom   15 type  1   force =     0.00000000    0.00000000    0.00014081
     atom   16 type  1   force =     0.00000000    0.00000000    0.00014081
     atom   17 type  1   force =     0.00000000    0.00000000   -0.00087463
     atom   18 type  1   force =     0.00000000    0.00000000   -0.00087728
     atom   19 type  1   force =     0.00000000    0.00000000   -0.00060149
     atom   20 type  1   force =     0.00000000    0.00000000   -0.00060149
     atom   21 type  1   force =     0.00000000    0.00000000   -0.00186094
     atom   22 type  1   force =     0.00000000    0.00000000   -0.00185596
     atom   23 type  1   force =     0.00000000    0.00000000    0.00377901
     atom   24 type  1   force =     0.00000000    0.00000000    0.00377901

     Total force =     0.008704     Total SCF correction =     0.000612


     entering subroutine stress ...

          total   stress  (Ry/bohr**3)                   (kbar)     P=   -8.11
  -0.00008312   0.00000000   0.00000000        -12.23      0.00      0.00
   0.00000000  -0.00008312   0.00000000          0.00    -12.23      0.00
   0.00000000   0.00000000   0.00000077          0.00      0.00      0.11


     BFGS Geometry Optimization

     number of scf cycles    =   1
     number of bfgs steps    =   0

     energy   new            =    -299.0305690434 Ry

     new trust radius        =       0.0037809576 bohr
     new conv_thr            =       0.0000010000 Ry


ATOMIC_POSITIONS (crystal)
Al       0.000000000   0.000000000  -0.000055241
Al       0.500000000   0.500000000  -0.000055197
Al       0.500000000   0.000000000   0.055582716
Al       0.000000000   0.500000000   0.055582716
Al       0.000000000   0.000000000   0.111119962
Al       0.500000000   0.500000000   0.111119859
Al       0.500000000   0.000000000   0.166679443
Al       0.000000000   0.500000000   0.166679443
Al       0.000000000   0.000000000   0.222220129
Al       0.500000000   0.500000000   0.222220235
Al       0.500000000   0.000000000   0.277774430
Al       0.000000000   0.500000000   0.277774430
Al       0.000000000   0.000000000   0.333336641
Al       0.500000000   0.500000000   0.333336707
Al       0.500000000   0.000000000   0.388890946
Al       0.000000000   0.500000000   0.388890946
Al       0.000000000   0.000000000   0.444431666
Al       0.500000000   0.500000000   0.444431627
Al       0.500000000   0.000000000   0.499991212
Al       0.000000000   0.500000000   0.499991212
Al       0.000000000   0.000000000   0.555528367
Al       0.500000000   0.500000000   0.555528440
Al       0.500000000   0.000000000   0.611166323
Al       0.000000000   0.500000000   0.611166323



     Writing output data file Al_100_6_3.save
     NEW-OLD atomic charge density approx. for the potential

     total cpu time spent up to now is     2068.8 secs

     per-process dynamical memory:   455.9 Mb

     Self-consistent Calculation

     iteration #  1     ecut=    30.00 Ry     beta=0.30
     Davidson diagonalization with overlap
     ethr =  1.00E-06,  avg # of iterations =  2.0

     total cpu time spent up to now is     2178.9 secs

     total energy              =    -299.03064014 Ry
     Harris-Foulkes estimate   =    -299.03064122 Ry
     estimated scf accuracy    <       0.00011655 Ry

     iteration #  2     ecut=    30.00 Ry     beta=0.30
     Davidson diagonalization with overlap
     ethr =  1.62E-07,  avg # of iterations =  1.2

     total cpu time spent up to now is     2277.4 secs

     total energy              =    -299.03063891 Ry
     Harris-Foulkes estimate   =    -299.03064225 Ry
     estimated scf accuracy    <       0.00007507 Ry

     iteration #  3     ecut=    30.00 Ry     beta=0.30
     Davidson diagonalization with overlap
     ethr =  1.04E-07,  avg # of iterations =  1.0

     total cpu time spent up to now is     2375.3 secs

     total energy              =    -299.03064089 Ry
     Harris-Foulkes estimate   =    -299.03064094 Ry
     estimated scf accuracy    <       0.00000122 Ry

     iteration #  4     ecut=    30.00 Ry     beta=0.30
     Davidson diagonalization with overlap
     ethr =  1.70E-09,  avg # of iterations =  4.4

     total cpu time spent up to now is     2496.3 secs

     End of self-consistent calculation

          k = 0.0000 0.0000 0.0000 ( 11047 PWs)   bands (ev):

    -7.2279  -7.0427  -6.7420  -6.3273  -5.7955  -5.1516  -4.4026  -3.5540
    -2.6035  -1.5597  -0.4266   0.8665   1.0620   1.0620   1.2323   1.2323
     1.4750   1.5087   1.5087   1.8903   1.8903   2.3817   2.3817   2.4208
     2.4209   2.5977   2.5977   2.8831   2.8831   2.9798   2.9798   3.2692
     3.2692   3.3929   3.6785   3.6785   3.7416   3.7416   4.4432   4.4432
     4.4752   4.4752   4.7151

          k = 0.0000 0.0625 0.0000 ( 11033 PWs)   bands (ev):

    -7.1921  -7.0070  -6.7063  -6.2917  -5.7601  -5.1163  -4.3675  -3.5190
    -2.5687  -1.5250  -0.3919   0.4885   0.6617   0.9010   0.9434   1.0947
     1.2648   1.3314   1.5081   1.5415   1.8293   1.9234   2.4147   2.4259
     2.4589   2.6318   2.9182   3.0128   3.0546   3.0966   3.2293   3.3470
     3.4262   3.5202   3.7118   3.7124   3.9110   4.0690   4.2444   4.5083
     4.6482   4.7479   4.8790

          k = 0.0000 0.1250 0.0000 ( 11039 PWs)   bands (ev):

    -7.0848  -6.8998  -6.5993  -6.1850  -5.6538  -5.0103  -4.2620  -3.4141
    -2.4643  -1.4213  -0.4176  -0.2895  -0.2413   0.0445   0.4384   0.9430
     1.0028   1.1930   1.3631   1.5530   1.6075   1.6398   2.0218   2.2561
     2.5133   2.5569   2.7350   2.9349   3.1115   3.1506   3.3992   3.5261
     3.8104   3.9977   4.0736   4.1423   4.3155   4.5149   4.6068   4.6400
     4.8453   4.9051   5.0166

          k = 0.0000 0.1875 0.0000 ( 11041 PWs)   bands (ev):

    -6.9060  -6.7213  -6.4212  -6.0074  -5.4767  -4.8339  -4.0865  -3.2396
    -2.2907  -1.3185  -1.2488  -1.1397  -0.8510  -0.4531  -0.1187   0.0567
     0.6736   1.1727   1.3569   1.3892   1.5275   1.7728   1.8043   2.1860
     2.1915   2.6774   2.7270   2.8650   3.1066   3.1894   3.2756   3.6909
     3.7131   3.9745   4.1636   4.1964   4.7553   4.7710   5.0047   5.2525
     5.3451   5.4116   5.5332

          k = 0.0000 0.2500 0.0000 ( 11029 PWs)   bands (ev):

    -6.6562  -6.4717  -6.1721  -5.7590  -5.2291  -4.5874  -3.8412  -2.9955
    -2.1703  -2.0482  -1.9910  -1.6998  -1.2990  -1.0080  -0.7848  -0.1624
     0.1200   0.5603   1.3766   1.4100   1.5872   1.7576   2.0049   2.0344
     2.2788   2.4161   2.9075   2.9483   3.1409   3.1796   3.5054   3.6403
     3.9064   3.9193   4.2039   4.4009   4.4565   5.0002   5.0123   5.2210
     5.5720   5.7935   5.8383

          k = 0.0000 0.3125 0.0000 ( 10979 PWs)   bands (ev):

    -6.3356  -6.1515  -5.8524  -5.4401  -4.9113  -4.2710  -3.5261  -2.9629
    -2.7827  -2.6818  -2.4902  -2.0867  -1.7361  -1.5695  -0.9432  -0.6984
    -0.2152   0.4267   0.6085   1.5273   1.7141   1.8824   2.0529   2.3022
     2.3295   2.5185   2.7113   3.2031   3.2617   3.3218   3.8013   3.8240
     3.8273   4.2025   4.2040   4.4997   4.6915   4.9706   5.0373   5.2078
     5.2679   5.2962   5.4843

          k = 0.0000 0.3750 0.0000 ( 10950 PWs)   bands (ev):

    -5.9445  -5.7609  -5.4626  -5.0514  -4.5240  -3.8852  -3.6927  -3.5117
    -3.2177  -3.1422  -2.8123  -2.3000  -2.2923  -1.6627  -1.3566  -0.9307
    -0.3217  -0.1019   0.7996   0.8249   1.8369   2.0833   2.2441   2.4148
     2.6655   2.6913   2.9074   3.0733   3.5650   3.5703   3.9153   4.1631
     4.1780   4.3257   4.3471   4.5176   4.5244   4.5659   4.7690   4.7941
     4.8612   5.0855   5.1761

          k = 0.0000 0.4375 0.0000 ( 10974 PWs)   bands (ev):

    -5.4840  -5.3009  -5.0035  -4.5935  -4.3571  -4.1752  -4.0676  -3.8800
    -3.4731  -3.4307  -2.9509  -2.6897  -2.3183  -1.8499  -1.5826  -0.9096
    -0.7497   0.1216   0.1825   1.2034   1.2382   2.3026   2.5152   2.6710
     2.8415   3.0936   3.1184   3.5008   3.5016   3.7226   3.8933   3.9921
     4.1272   4.1697   4.1876   4.3360   4.5519   4.5898   4.6087   4.7582
     5.0082   5.0432   5.2945

          k = 0.0000-0.5000 0.0000 ( 10974 PWs)   bands (ev):

    -4.9546  -4.9545  -4.7721  -4.7720  -4.4757  -4.4756  -4.0671  -4.0670
    -3.5429  -3.5428  -2.9079  -2.9078  -2.1694  -2.1694  -1.3327  -1.3326
    -0.3960  -0.3960   0.6307   0.6308   1.7406   1.7407   3.0025   3.0026
     3.1638   3.1639   3.3344   3.3345   3.5853   3.5853   3.6111   3.6112
     3.9935   3.9936   4.4847   4.4848   4.5532   4.5532   4.7968   4.7969
     5.0822   5.0823   5.0994

          k = 0.0625 0.0625 0.0000 ( 11047 PWs)   bands (ev):

    -7.1563  -6.9712  -6.6706  -6.2562  -5.7247  -5.0809  -4.3324  -3.4841
    -2.5340  -1.4905  -0.3577   0.5217   0.5217   0.6950   0.6950   0.9350
     0.9764   0.9764   1.3642   1.3642   1.5412   1.8613   1.8613   2.4683
     2.4683   3.0884   3.0884   3.1698   3.1698   3.2686   3.2687   3.4594
     3.5331   3.5331   3.9131   3.9131   3.9897   3.9897   4.4620   4.4620
     4.7800   4.9182   4.9182

          k = 0.0625 0.1250 0.0000 ( 11040 PWs)   bands (ev):

    -7.0490  -6.8641  -6.5637  -6.1495  -5.6183  -4.9750  -4.2269  -3.3792
    -2.4294  -1.3866  -0.3833  -0.2552  -0.2077   0.0780   0.4713   0.6219
     0.7948   0.9757   1.0368   1.0762   1.4640   1.5812   1.6405   1.9720
     2.2851   2.5976   3.0965   3.1928   3.2831   3.3567   3.5586   3.6597
     3.8807   4.0720   4.1776   4.2355   4.3407   4.5759   4.6285   4.8758
     4.8778   5.0554   5.1273

          k = 0.0625 0.1875 0.0000 ( 11046 PWs)   bands (ev):

    -6.8703  -6.6856  -6.3856  -5.9719  -5.4413  -4.7987  -4.0514  -3.2047
    -2.2558  -1.2839  -1.2141  -1.1056  -0.8172  -0.4195  -0.0845   0.0901
     0.7053   0.7894   0.9616   1.2065   1.2429   1.4102   1.6470   1.8060
     2.0926   2.2890   2.7487   3.1304   3.3527   3.4494   3.5456   3.7218
     3.7599   4.2485   4.2737   4.2740   4.7540   5.0286   5.1380   5.2587
     5.3603   5.3855   5.5504

          k = 0.0625 0.2500 0.0000 ( 11029 PWs)   bands (ev):

    -6.6206  -6.4361  -6.1365  -5.7235  -5.1938  -4.5522  -3.8061  -2.9606
    -2.1358  -2.0133  -1.9564  -1.6652  -1.2646  -0.9734  -0.7508  -0.1289
     0.1540   0.5923   1.0221   1.1953   1.3813   1.4434   1.5060   1.8569
     2.0378   2.3475   2.3792   2.9796   3.2996   3.5955   3.6870   3.7346
     3.9441   4.1382   4.4487   4.4981   4.5516   4.9902   5.1722   5.3026
     5.3632   5.5527   5.5878

          k = 0.0625 0.3125 0.0000 ( 10965 PWs)   bands (ev):

    -6.3000  -6.1159  -5.8169  -5.4047  -4.8761  -4.2359  -3.4912  -2.9281
    -2.7479  -2.6470  -2.4554  -2.0521  -1.7017  -1.5350  -0.9089  -0.6645
    -0.1815   0.4602   0.6404   1.3222   1.4723   1.5789   1.7470   1.7740
     2.1860   2.3352   2.5846   2.6750   3.2759   3.6113   3.8658   3.9818
     4.1724   4.1879   4.4119   4.6137   4.6625   4.7799   4.7964   4.9583
     4.9892   5.3086   5.3439

          k = 0.0625 0.3750 0.0000 ( 10961 PWs)   bands (ev):

    -5.9091  -5.7255  -5.4273  -5.0162  -4.4888  -3.8501  -3.6578  -3.4768
    -3.1829  -3.1073  -2.7777  -2.2653  -2.2578  -1.6282  -1.3223  -0.8963
    -0.2877  -0.0680   0.8329   0.8570   1.6824   1.8539   1.8596   2.1145
     2.1813   2.5432   2.6982   2.9782   3.0385   3.6431   3.7972   3.9881
     4.0456   4.2711   4.3392   4.4861   4.5066   4.6439   4.6581   4.7721
     4.7912   5.1556   5.1624

          k = 0.0625 0.4375 0.0000 ( 10967 PWs)   bands (ev):

    -5.4486  -5.2655  -4.9682  -4.5583  -4.3220  -4.1402  -4.0326  -3.8450
    -3.4382  -3.3958  -2.9162  -2.6549  -2.2837  -1.8154  -1.5482  -0.8754
    -0.7156   0.1553   0.2160   1.2343   1.2706   2.1181   2.2177   2.4296
     2.5365   2.5899   2.9736   3.1237   3.2010   3.3682   3.4635   3.6104
     3.6458   4.0325   4.0561   4.1925   4.5275   4.7114   4.7871   4.9095
     4.9799   5.1308   5.1976

          k = 0.0625-0.5000 0.0000 ( 10986 PWs)   bands (ev):

    -4.9193  -4.9193  -4.7369  -4.7368  -4.4406  -4.4405  -4.0321  -4.0320
    -3.5081  -3.5080  -2.8732  -2.8731  -2.1347  -2.1346  -1.2984  -1.2983
    -0.3623  -0.3622   0.6637   0.6638   1.7697   1.7697   2.5947   2.5948
     2.8083   2.8084   3.0743   3.0744   3.0891   3.0892   3.4684   3.4685
     3.6202   3.6203   3.9678   3.9679   4.5723   4.5724   5.0534   5.0535
     5.2760   5.2761   5.3731

          k = 0.1250 0.1250 0.0000 ( 11037 PWs)   bands (ev):

    -6.9418  -6.7569  -6.4568  -6.0429  -5.5121  -4.8692  -4.1216  -3.2744
    -2.3253  -1.2833  -0.2818  -0.2818  -0.1529  -0.1063  -0.1062   0.1787
     0.1787   0.5716   0.5716   1.0736   1.0736   1.1385   1.6932   1.6932
     1.7396   2.4239   2.4239   3.2183   3.2183   3.6551   4.0985   4.0985
     4.2715   4.2716   4.4571   4.4571   4.6886   4.6886   4.9626   5.1527
     5.1527   5.2093   5.2093

          k = 0.1250 0.1875 0.0000 ( 11030 PWs)   bands (ev):

    -6.7632  -6.5786  -6.2788  -5.8654  -5.3352  -4.6930  -3.9462  -3.1000
    -2.1519  -1.1806  -1.1111  -1.0030  -0.7149  -0.3183  -0.1124   0.0176
     0.0616   0.1910   0.3466   0.7391   0.8006   1.2574   1.3077   1.5151
     1.8957   1.9052   2.3575   2.5866   3.2478   3.4017   3.8101   4.1850
     4.3229   4.4515   4.5893   4.9701   5.0413   5.2217   5.2705   5.3216
     5.4373   5.4953   5.5254

          k = 0.1250 0.2500 0.0000 ( 11008 PWs)   bands (ev):

    -6.5137  -6.3293  -6.0299  -5.6172  -5.0878  -4.4467  -3.7011  -2.8561
    -2.0318  -1.9094  -1.8524  -1.5620  -1.1619  -0.8704  -0.6489  -0.0296
     0.1246   0.2561   0.2984   0.5832   0.6810   0.9941   1.4108   1.5439
     1.6098   2.1106   2.1367   2.4467   2.8171   3.4425   3.6231   3.9719
     4.4637   4.5263   4.5313   4.5419   4.6552   4.8507   4.9612   5.1769
     5.2376   5.4503   5.5180

          k = 0.1250 0.3125 0.0000 ( 10981 PWs)   bands (ev):

    -6.1933  -6.0093  -5.7106  -5.2987  -4.7704  -4.1306  -3.3864  -2.8239
    -2.6439  -2.5430  -2.3514  -1.9485  -1.5984  -1.4317  -0.8065  -0.5618
    -0.0816   0.4279   0.5615   0.6027   0.7193   0.9117   1.2658   1.7026
     1.8044   1.8447   2.4095   2.4336   2.6876   3.1231   3.6084   3.7500
     3.8146   3.9507   4.1014   4.4391   4.4915   4.7457   4.8839   4.9929
     5.1897   5.2509   5.4694

          k = 0.1250 0.3750 0.0000 ( 10969 PWs)   bands (ev):

    -5.8027  -5.6192  -5.3212  -4.9104  -4.3834  -3.7452  -3.5530  -3.3721
    -3.0783  -3.0027  -2.6733  -2.1613  -2.1538  -1.5248  -1.2192  -0.7940
    -0.1860   0.0319   0.7981   0.9098   0.9327   1.0168   1.2524   1.6766
     2.0028   2.1691   2.2003   2.7728   2.7938   2.9615   3.0936   3.1303
     3.4103   3.4828   3.8000   4.2859   4.2972   4.3315   4.7649   4.9045
     4.9076   5.2084   5.3695

          k = 0.1250 0.4375 0.0000 ( 10969 PWs)   bands (ev):

    -5.3426  -5.1596  -4.8625  -4.4529  -4.2167  -4.0350  -3.9274  -3.7401
    -3.3334  -3.2910  -2.8117  -2.5508  -2.1796  -1.7120  -1.4448  -0.7729
    -0.6132   0.2561   0.3153   1.2207   1.3272   1.3656   1.4065   1.7386
     2.1033   2.2642   2.4661   2.5034   2.6018   2.7064   2.7815   3.1615
     3.2111   3.2317   3.6707   3.7007   3.9508   4.2629   4.2798   4.7485
     4.9709   5.1820   5.6041

          k = 0.1250-0.5000 0.0000 ( 10954 PWs)   bands (ev):

    -4.8137  -4.8136  -4.6313  -4.6312  -4.3352  -4.3351  -3.9270  -3.9270
    -3.4034  -3.4033  -2.7689  -2.7688  -2.0310  -2.0309  -1.1952  -1.1951
    -0.2604  -0.2603   0.7615   0.7615   1.7331   1.7332   1.7782   1.7783
     2.0290   2.0290   2.2173   2.2174   2.6032   2.6033   3.0846   3.0847
     3.1906   3.1907   3.6557   3.6558   3.7747   3.7748   4.4241   4.4242
     5.2301   5.2301   5.5736

          k = 0.1875 0.1875 0.0000 ( 11009 PWs)   bands (ev):

    -6.5849  -6.4005  -6.1010  -5.6881  -5.1584  -4.5170  -3.7711  -2.9256
    -1.9785  -1.0096  -1.0096  -0.9391  -0.8323  -0.8323  -0.5449  -0.5449
    -0.1491  -0.1491   0.1879   0.3567   0.3567   0.9832   0.9832   1.4760
     1.7204   1.7204   2.0705   2.5233   2.5233   3.4319   3.4319   3.9047
     4.4260   4.4260   4.4884   4.4906   4.8029   5.1901   5.3951   5.4466
     5.4467   5.6272   5.6952

          k = 0.1875 0.2500 0.0000 ( 11000 PWs)   bands (ev):

    -6.3357  -6.1515  -5.8525  -5.4402  -4.9114  -4.2709  -3.5261  -2.6820
    -1.8589  -1.7364  -1.6801  -1.3904  -0.9914  -0.7701  -0.6989  -0.5949
    -0.4787  -0.3074   0.0878   0.1347   0.4254   0.6107   0.8562   1.2517
     1.7022   1.7092   1.9493   2.3012   2.6011   2.7725   3.4952   3.5680
     3.7063   3.7208   3.9948   4.3208   4.3860   4.5841   4.7862   4.8885
     5.4681   5.6189   5.6284

          k = 0.1875 0.3125 0.0000 ( 10987 PWs)   bands (ev):

    -6.0157  -5.8319  -5.5335  -5.1221  -4.5944  -3.9552  -3.2118  -2.6504
    -2.4704  -2.3693  -2.1782  -1.7760  -1.4259  -1.2606  -0.6382  -0.4631
    -0.3910  -0.2881  -0.0012   0.0769   0.4125   0.7293   0.8243   1.0179
     1.5360   1.8525   1.9978   2.2467   2.5951   2.7890   2.8611   2.9589
     3.0577   3.2400   3.6304   3.9525   3.9691   4.1289   4.5838   4.7383
     4.9662   5.1852   5.4501

          k = 0.1875 0.3750 0.0000 ( 10952 PWs)   bands (ev):

    -5.6256  -5.4423  -5.1446  -4.7342  -4.2078  -3.5703  -3.3787  -3.1979
    -2.9044  -2.8287  -2.4999  -1.9882  -1.9810  -1.3531  -1.0474  -0.6249
    -0.0898  -0.0164   0.0862   0.1818   0.3955   0.7532   1.0957   1.1684
     1.2955   1.9043   2.0175   2.1587   2.2653   2.4471   2.5442   2.6221
     2.9192   2.9741   3.2352   3.4368   3.4553   4.0483   4.2798   4.5922
     4.7395   4.9551   5.0165

          k = 0.1875 0.4375 0.0000 ( 10952 PWs)   bands (ev):

    -5.1660  -4.9832  -4.6864  -4.2773  -4.0415  -3.8601  -3.7524  -3.5654
    -3.1592  -3.1166  -2.6381  -2.3772  -2.0070  -1.5394  -1.2733  -0.6022
    -0.4444   0.3506   0.4224   0.4449   0.5626   0.8070   1.2339   1.4238
     1.4504   1.5349   1.7145   1.7299   1.9118   2.2994   2.3352   2.6345
     2.7737   2.8709   3.0492   3.3359   3.4662   3.8546   3.8980   4.1282
     4.4558   4.7941   4.9372

          k = 0.1875-0.5000 0.0000 ( 10962 PWs)   bands (ev):

    -4.6377  -4.6376  -4.4555  -4.4555  -4.1598  -4.1597  -3.7520  -3.7519
    -3.2290  -3.2289  -2.5953  -2.5952  -1.8583  -1.8582  -1.0240  -1.0239
    -0.0926  -0.0925   0.8379   0.8379   0.9291   0.9292   1.0289   1.0290
     1.3622   1.3622   1.7305   1.7306   2.0678   2.0679   2.2314   2.2315
     2.8434   2.8434   3.3109   3.3110   3.5881   3.5882   3.8686   3.8687
     4.3893   4.3894   5.2722

          k = 0.2500 0.2500 0.0000 ( 10971 PWs)   bands (ev):

    -6.0867  -5.9028  -5.6042  -5.1926  -4.6647  -4.0253  -3.2816  -2.4387
    -1.6180  -1.6180  -1.4947  -1.4396  -1.4396  -1.1505  -1.1505  -0.7524
    -0.7524  -0.4594  -0.2436  -0.2436   0.3870   0.3870   0.6614   1.1254
     1.1254   1.9302   1.9336   1.9336   2.5294   2.7291   2.8488   2.8488
     2.8991   3.1802   3.5714   3.8545   3.8545   4.0702   4.5213   4.6798
     4.9422   4.9422   5.3922

          k = 0.2500 0.3125 0.0000 ( 10980 PWs)   bands (ev):

    -5.7674  -5.5838  -5.2858  -4.8751  -4.3482  -3.7100  -2.9678  -2.4077
    -2.2281  -2.1268  -1.9367  -1.5359  -1.3087  -1.1851  -1.1323  -1.0207
    -0.8433  -0.4457  -0.4041  -0.1527   0.0799   0.3225   0.7198   0.9603
     1.1675   1.4234   1.8909   2.0706   2.1411   2.2519   2.3151   2.4203
     2.7926   2.8452   3.0438   3.2059   3.3146   3.9269   4.0697   4.2823
     4.6179   4.8309   5.1569

          k = 0.2500 0.3750 0.0000 ( 10944 PWs)   bands (ev):

    -5.3779  -5.1949  -4.8977  -4.4880  -3.9623  -3.3257  -3.1347  -2.9542
    -2.6612  -2.5854  -2.2575  -1.7464  -1.7399  -1.1149  -0.9308  -0.8078
    -0.7553  -0.4670  -0.3961  -0.0519   0.2186   0.3630   0.5453   1.0752
     1.2326   1.2523   1.3838   1.5201   1.7213   1.7889   2.1099   2.3975
     2.5801   2.6037   2.6762   3.1403   3.2767   3.4964   3.5190   3.9425
     4.5196   4.7532   4.7534

          k = 0.2500 0.4375 0.0000 ( 10976 PWs)   bands (ev):

    -4.9191  -4.7366  -4.4402  -4.0317  -3.7966  -3.6154  -3.5078  -3.3212
    -2.9156  -2.8730  -2.3955  -2.1348  -1.7657  -1.2989  -1.0349  -0.4880
    -0.3652  -0.3114  -0.2238  -0.0021   0.3596   0.5760   0.6621   0.7618
     0.7697   0.9014   1.1022   1.4729   1.5130   1.7565   1.7992   1.9752
     2.2336   2.5887   2.8380   3.0453   3.0703   3.3358   3.6049   3.8929
     4.1399   4.2114   4.6232

          k = 0.2500-0.5000 0.0000 ( 10962 PWs)   bands (ev):

    -4.3918  -4.3917  -4.2098  -4.2098  -3.9144  -3.9144  -3.5073  -3.5072
    -2.9850  -2.9850  -2.3525  -2.3524  -1.6173  -1.6172  -0.7860  -0.7859
     0.0218   0.0219   0.1097   0.1098   0.2313   0.2314   0.4801   0.4802
     0.9068   0.9068   1.1977   1.1978   1.4054   1.4055   2.0117   2.0118
     2.3021   2.3022   2.7281   2.7281   3.5356   3.5357   3.5702   3.5703
     4.1284   4.1285   4.4804

          k = 0.3125 0.3125 0.0000 ( 10986 PWs)   bands (ev):

    -5.4487  -5.2655  -4.9681  -4.5582  -4.0325  -3.3956  -2.6549  -2.0961
    -2.0960  -1.9172  -1.9172  -1.8157  -1.6272  -1.6272  -1.2276  -1.2276
    -0.8764  -0.7162  -0.7162  -0.0826  -0.0826   0.1507   0.6553   0.6553
     1.1678   1.1857   1.4542   1.4677   1.4677   1.6569   2.0457   2.3868
     2.3868   2.5146   2.6106   3.0743   3.2128   3.3974   3.3974   3.8800
     4.4920   4.4920   4.6913

          k = 0.3125 0.3750 0.0000 ( 10964 PWs)   bands (ev):

    -5.0600  -4.8774  -4.5808  -4.1720  -3.6474  -3.0120  -2.8216  -2.6416
    -2.3493  -2.2732  -1.9471  -1.7167  -1.5397  -1.4366  -1.4301  -1.2494
    -0.8506  -0.8109  -0.5018  -0.3237  -0.0804   0.3147   0.4442   0.5282
     0.6391   0.7629   0.9707   1.0236   1.3425   1.6644   1.6690   1.8454
     1.8554   2.4599   2.6453   2.8130   2.9117   3.2083   3.4729   3.6759
     3.8935   4.0132   4.7684

          k = 0.3125 0.4375 0.0000 ( 10952 PWs)   bands (ev):

    -4.6023  -4.4201  -4.1244  -3.7168  -3.4822  -3.3013  -3.1937  -3.0076
    -2.6032  -2.5603  -2.0844  -1.8243  -1.4575  -1.2692  -1.0925  -0.9916
    -0.8036  -0.7358  -0.3881  -0.1776  -0.0924   0.0308   0.0317   0.2028
     0.2822   0.7080   0.7414   0.9939   1.0465   1.2080   1.4574   1.8148
     2.0633   2.1011   2.2745   2.5329   3.1661   3.1925   3.3420   3.3713
     3.9318   4.1958   4.2893

          k = 0.3125-0.5000 0.0000 ( 10950 PWs)   bands (ev):

    -4.0761  -4.0760  -3.8946  -3.8945  -3.5998  -3.5997  -3.1934  -3.1934
    -2.6724  -2.6723  -2.0416  -2.0415  -1.3092  -1.3092  -0.7567  -0.7566
    -0.5792  -0.5792  -0.4951  -0.4950  -0.2702  -0.2701   0.0946   0.0946
     0.4888   0.4889   0.6351   0.6351   1.2486   1.2487   1.4869   1.4870
     1.9712   1.9713   2.5712   2.5713   2.8100   2.8101   3.6314   3.6315
     3.9515   3.9516   4.3603

          k = 0.3750 0.3750 0.0000 ( 10962 PWs)   bands (ev):

    -4.6726  -4.4904  -4.1946  -3.7867  -3.2634  -2.6296  -2.4398  -2.4398
    -2.2607  -2.2607  -1.9696  -1.9696  -1.8931  -1.5688  -1.5688  -1.0602
    -1.0557  -1.0557  -0.4204  -0.4204  -0.2440  -0.1598  -0.0361   0.2161
     0.3168   0.3168   0.6415   0.9257   1.1323   1.1323   1.1419   1.7490
     2.0340   2.0541   2.0541   2.4679   3.0677   3.0677   3.2769   3.3048
     3.8662   4.1657   4.1657

          k = 0.3750 0.4375 0.0000 ( 10953 PWs)   bands (ev):

    -4.2160  -4.0343  -3.7393  -3.3326  -3.0987  -2.9185  -2.8110  -2.6257
    -2.2227  -2.1796  -1.9902  -1.8129  -1.7046  -1.5218  -1.4465  -1.1222
    -1.0836  -0.8916  -0.7139  -0.6311  -0.5945  -0.4048  -0.3504  -0.0385
     0.0424   0.3518   0.4913   0.5009   0.7551   1.1153   1.3517   1.3992
     1.5894   1.8391   2.3779   2.4372   2.5491   2.6788   3.4115   3.5000
     3.6317   3.8206   4.2290

          k = 0.3750-0.5000 0.0000 ( 10952 PWs)   bands (ev):

    -3.6913  -3.6912  -3.5101  -3.5101  -3.2160  -3.2160  -2.8109  -2.8108
    -2.2915  -2.2914  -1.6639  -1.6639  -1.4731  -1.4731  -1.2960  -1.2960
    -1.0064  -1.0063  -0.9406  -0.9405  -0.5908  -0.5908  -0.1678  -0.1678
    -0.0046  -0.0045   0.5394   0.5395   0.8435   0.8435   1.2571   1.2572
     1.8620   1.8621   2.0756   2.0757   2.9666   2.9666   2.9952   2.9952
     3.9999   4.0000   4.2314

          k = 0.4375 0.4375 0.0000 ( 10986 PWs)   bands (ev):

    -3.7610  -3.5798  -3.2856  -2.8801  -2.6472  -2.6472  -2.4674  -2.4674
    -2.3606  -2.1758  -2.1758  -1.7741  -1.7741  -1.7327  -1.5414  -1.3643
    -1.2602  -1.2602  -1.0745  -1.0088  -0.6587  -0.6242  -0.6242  -0.2344
    -0.0739   0.1122   0.1122   0.4714   0.7758   0.9299   0.9299   1.1894
     1.7949   1.8534   1.8534   2.0088   2.8684   2.8684   2.8997   2.9295
     3.9349   3.9684   3.9684

          k = 0.4375-0.5000 0.0000 ( 10998 PWs)   bands (ev):

    -3.2378  -3.2378  -3.0572  -3.0571  -2.7642  -2.7641  -2.3608  -2.3607
    -2.1275  -2.1274  -1.9500  -1.9500  -1.8421  -1.8420  -1.6590  -1.6589
    -1.2586  -1.2585  -1.2202  -1.2202  -0.7305  -0.7305  -0.4860  -0.4860
    -0.0945  -0.0945   0.3551   0.3551   0.6197   0.6198   1.2641   1.2642
     1.4555   1.4556   2.2437   2.2438   2.4164   2.4165   3.2783   3.2784
     3.4999   3.4999   4.3753

          k =-0.5000-0.5000 0.0000 ( 10956 PWs)   bands (ev):

    -2.7164  -2.7163  -2.7163  -2.7163  -2.5365  -2.5365  -2.5365  -2.5364
    -2.2445  -2.2444  -2.2444  -2.2443  -1.8429  -1.8428  -1.8428  -1.8427
    -1.3283  -1.3282  -1.3282  -1.3282  -0.6919  -0.6918  -0.6918  -0.6918
     0.0439   0.0440   0.0440   0.0441   0.8622   0.8623   0.8623   0.8624
     1.7863   1.7864   1.7864   1.7864   2.8020   2.8021   2.8021   2.8021
     3.9026   3.9027   3.9027

     the Fermi energy is     3.9728 ev

!    total energy              =    -299.03064043 Ry
     Harris-Foulkes estimate   =    -299.03064112 Ry
     estimated scf accuracy    <       0.00000073 Ry

     The total energy is the sum of the following terms:

     one-electron contribution =   -1355.17347668 Ry
     hartree contribution      =     702.82997348 Ry
     xc contribution           =    -240.39592073 Ry
     ewald contribution        =     593.70837307 Ry
     smearing contrib. (-TS)   =       0.00041044 Ry

     convergence has been achieved in   4 iterations

     Forces acting on atoms (Ry/au):

     atom    1 type  1   force =     0.00000000    0.00000000   -0.00348079
     atom    2 type  1   force =     0.00000000    0.00000000   -0.00347945
     atom    3 type  1   force =     0.00000000    0.00000000    0.00147206
     atom    4 type  1   force =     0.00000000    0.00000000    0.00147206
     atom    5 type  1   force =     0.00000000    0.00000000    0.00068285
     atom    6 type  1   force =     0.00000000    0.00000000    0.00067694
     atom    7 type  1   force =     0.00000000    0.00000000    0.00081149
     atom    8 type  1   force =     0.00000000    0.00000000    0.00081149
     atom    9 type  1   force =     0.00000000    0.00000000   -0.00009279
     atom   10 type  1   force =     0.00000000    0.00000000   -0.00008587
     atom   11 type  1   force =     0.00000000    0.00000000   -0.00020004
     atom   12 type  1   force =     0.00000000    0.00000000   -0.00020004
     atom   13 type  1   force =     0.00000000    0.00000000    0.00019776
     atom   14 type  1   force =     0.00000000    0.00000000    0.00020121
     atom   15 type  1   force =     0.00000000    0.00000000    0.00009011
     atom   16 type  1   force =     0.00000000    0.00000000    0.00009011
     atom   17 type  1   force =     0.00000000    0.00000000   -0.00081027
     atom   18 type  1   force =     0.00000000    0.00000000   -0.00081440
     atom   19 type  1   force =     0.00000000    0.00000000   -0.00067995
     atom   20 type  1   force =     0.00000000    0.00000000   -0.00067995
     atom   21 type  1   force =     0.00000000    0.00000000   -0.00147303
     atom   22 type  1   force =     0.00000000    0.00000000   -0.00147022
     atom   23 type  1   force =     0.00000000    0.00000000    0.00348036
     atom   24 type  1   force =     0.00000000    0.00000000    0.00348036

     Total force =     0.007861     Total SCF correction =     0.001501
     SCF correction compared to forces is large: reduce conv_thr to get better values


     entering subroutine stress ...

          total   stress  (Ry/bohr**3)                   (kbar)     P=   -8.19
  -0.00008347   0.00000000   0.00000000        -12.28      0.00      0.00
   0.00000000  -0.00008347   0.00000000          0.00    -12.28      0.00
   0.00000000   0.00000000  -0.00000008          0.00      0.00     -0.01


     number of scf cycles    =   2
     number of bfgs steps    =   1

     energy   old            =    -299.0305690434 Ry
     energy   new            =    -299.0306404260 Ry

     CASE: energy  _new < energy  _old


     WARNING: bfgs curvature condition failed, Theta= 0.888
     new trust radius        =       0.0041590534 bohr
     new conv_thr            =       0.0000000100 Ry


ATOMIC_POSITIONS (crystal)
Al       0.000000000   0.000000000  -0.000116006
Al       0.500000000   0.500000000  -0.000115934
Al       0.500000000   0.000000000   0.055609270
Al       0.000000000   0.500000000   0.055609270
Al       0.000000000   0.000000000   0.111131435
Al       0.500000000   0.500000000   0.111131226
Al       0.500000000   0.000000000   0.166693586
Al       0.000000000   0.500000000   0.166693586
Al       0.000000000   0.000000000   0.222218369
Al       0.500000000   0.500000000   0.222218595
Al       0.500000000   0.000000000   0.277770899
Al       0.000000000   0.500000000   0.277770899
Al       0.000000000   0.000000000   0.333340131
Al       0.500000000   0.500000000   0.333340260
Al       0.500000000   0.000000000   0.388892661
Al       0.000000000   0.500000000   0.388892661
Al       0.000000000   0.000000000   0.444417539
Al       0.500000000   0.500000000   0.444417434
Al       0.500000000   0.000000000   0.499979794
Al       0.000000000   0.500000000   0.499979794
Al       0.000000000   0.000000000   0.555501792
Al       0.500000000   0.500000000   0.555501920
Al       0.500000000   0.000000000   0.611227076
Al       0.000000000   0.500000000   0.611227076



     Writing output data file Al_100_6_3.save
     NEW-OLD atomic charge density approx. for the potential

     total cpu time spent up to now is     2550.6 secs

     per-process dynamical memory:   455.9 Mb

     Self-consistent Calculation

     iteration #  1     ecut=    30.00 Ry     beta=0.30
     Davidson diagonalization with overlap
     ethr =  1.00E-06,  avg # of iterations =  2.3

     total cpu time spent up to now is     2684.2 secs

     total energy              =    -299.03072625 Ry
     Harris-Foulkes estimate   =    -299.03074404 Ry
     estimated scf accuracy    <       0.00206164 Ry

     iteration #  2     ecut=    30.00 Ry     beta=0.30
     Davidson diagonalization with overlap
     ethr =  2.86E-06,  avg # of iterations =  1.0

     total cpu time spent up to now is     2782.3 secs

     total energy              =    -299.03067991 Ry
     Harris-Foulkes estimate   =    -299.03072982 Ry
     estimated scf accuracy    <       0.00126749 Ry

     iteration #  3     ecut=    30.00 Ry     beta=0.30
     Davidson diagonalization with overlap
     ethr =  1.76E-06,  avg # of iterations =  1.3

     total cpu time spent up to now is     2880.1 secs

     total energy              =    -299.03070789 Ry
     Harris-Foulkes estimate   =    -299.03071094 Ry
     estimated scf accuracy    <       0.00006744 Ry

     iteration #  4     ecut=    30.00 Ry     beta=0.30
     Davidson diagonalization with overlap
     ethr =  9.37E-08,  avg # of iterations =  2.0

     total cpu time spent up to now is     2983.3 secs

     total energy              =    -299.03071073 Ry
     Harris-Foulkes estimate   =    -299.03071094 Ry
     estimated scf accuracy    <       0.00000150 Ry

     iteration #  5     ecut=    30.00 Ry     beta=0.30
     Davidson diagonalization with overlap
     ethr =  2.08E-09,  avg # of iterations =  3.7

     total cpu time spent up to now is     3092.7 secs

     total energy              =    -299.03071075 Ry
     Harris-Foulkes estimate   =    -299.03071084 Ry
     estimated scf accuracy    <       0.00000094 Ry

     iteration #  6     ecut=    30.00 Ry     beta=0.30
     Davidson diagonalization with overlap
     ethr =  1.30E-09,  avg # of iterations =  1.0

     total cpu time spent up to now is     3195.5 secs

     total energy              =    -299.03071067 Ry
     Harris-Foulkes estimate   =    -299.03071078 Ry
     estimated scf accuracy    <       0.00000259 Ry

     iteration #  7     ecut=    30.00 Ry     beta=0.30
     Davidson diagonalization with overlap
     ethr =  1.30E-09,  avg # of iterations =  2.0

     total cpu time spent up to now is     3309.4 secs

     total energy              =    -299.03071081 Ry
     Harris-Foulkes estimate   =    -299.03071073 Ry
     estimated scf accuracy    <       0.00000027 Ry

     iteration #  8     ecut=    30.00 Ry     beta=0.30
     Davidson diagonalization with overlap
     ethr =  3.80E-10,  avg # of iterations =  2.4

     total cpu time spent up to now is     3418.2 secs

     total energy              =    -299.03071084 Ry
     Harris-Foulkes estimate   =    -299.03071083 Ry
     estimated scf accuracy    <       0.00000024 Ry

     iteration #  9     ecut=    30.00 Ry     beta=0.30
     Davidson diagonalization with overlap
     ethr =  3.38E-10,  avg # of iterations =  1.0

     total cpu time spent up to now is     3516.8 secs

     total energy              =    -299.03071084 Ry
     Harris-Foulkes estimate   =    -299.03071085 Ry
     estimated scf accuracy    <       0.00000008 Ry

     iteration # 10     ecut=    30.00 Ry     beta=0.30
     Davidson diagonalization with overlap
     ethr =  1.09E-10,  avg # of iterations =  3.7

     total cpu time spent up to now is     3626.8 secs

     total energy              =    -299.03071089 Ry
     Harris-Foulkes estimate   =    -299.03071089 Ry
     estimated scf accuracy    <       0.00000049 Ry

     iteration # 11     ecut=    30.00 Ry     beta=0.30
     Davidson diagonalization with overlap
     ethr =  1.09E-10,  avg # of iterations =  1.0

     total cpu time spent up to now is     3724.6 secs

     total energy              =    -299.03071089 Ry
     Harris-Foulkes estimate   =    -299.03071089 Ry
     estimated scf accuracy    <       0.00000049 Ry

     iteration # 12     ecut=    30.00 Ry     beta=0.30
     Davidson diagonalization with overlap
     ethr =  1.09E-10,  avg # of iterations =  1.0

     total cpu time spent up to now is     3823.0 secs

     total energy              =    -299.03071088 Ry
     Harris-Foulkes estimate   =    -299.03071089 Ry
     estimated scf accuracy    <       0.00000047 Ry

     iteration # 13     ecut=    30.00 Ry     beta=0.30
     Davidson diagonalization with overlap
     ethr =  1.09E-10,  avg # of iterations =  1.0

     total cpu time spent up to now is     3922.5 secs

     total energy              =    -299.03071089 Ry
     Harris-Foulkes estimate   =    -299.03071088 Ry
     estimated scf accuracy    <       0.00000043 Ry

     iteration # 14     ecut=    30.00 Ry     beta=0.30
     Davidson diagonalization with overlap
     ethr =  1.09E-10,  avg # of iterations =  1.2

     total cpu time spent up to now is     4022.2 secs

     total energy              =    -299.03071089 Ry
     Harris-Foulkes estimate   =    -299.03071089 Ry
     estimated scf accuracy    <       0.00000060 Ry

     iteration # 15     ecut=    30.00 Ry     beta=0.30
     Davidson diagonalization with overlap
     ethr =  1.09E-10,  avg # of iterations =  1.0

     total cpu time spent up to now is     4120.0 secs

     total energy              =    -299.03071089 Ry
     Harris-Foulkes estimate   =    -299.03071089 Ry
     estimated scf accuracy    <       0.00000058 Ry

     iteration # 16     ecut=    30.00 Ry     beta=0.30
     Davidson diagonalization with overlap
     ethr =  1.09E-10,  avg # of iterations =  1.0

     total cpu time spent up to now is     4218.4 secs

     total energy              =    -299.03071089 Ry
     Harris-Foulkes estimate   =    -299.03071089 Ry
     estimated scf accuracy    <       0.00000051 Ry

     iteration # 17     ecut=    30.00 Ry     beta=0.30
     Davidson diagonalization with overlap
     ethr =  1.09E-10,  avg # of iterations =  1.0

     total cpu time spent up to now is     4315.7 secs

     total energy              =    -299.03071089 Ry
     Harris-Foulkes estimate   =    -299.03071089 Ry
     estimated scf accuracy    <       0.00000046 Ry

     iteration # 18     ecut=    30.00 Ry     beta=0.30
     Davidson diagonalization with overlap
     ethr =  1.09E-10,  avg # of iterations =  1.0

     total cpu time spent up to now is     4413.8 secs

     total energy              =    -299.03071069 Ry
     Harris-Foulkes estimate   =    -299.03071089 Ry
     estimated scf accuracy    <       0.00000042 Ry

     iteration # 19     ecut=    30.00 Ry     beta=0.30
     Davidson diagonalization with overlap
     ethr =  1.09E-10,  avg # of iterations =  3.8

     total cpu time spent up to now is     4577.7 secs

     total energy              =    -299.03071073 Ry
     Harris-Foulkes estimate   =    -299.03071074 Ry
     estimated scf accuracy    <       0.00000044 Ry

     iteration # 20     ecut=    30.00 Ry     beta=0.30
     Davidson diagonalization with overlap
     ethr =  1.09E-10,  avg # of iterations =  4.1

     total cpu time spent up to now is     4728.9 secs

     total energy              =    -299.03071075 Ry
     Harris-Foulkes estimate   =    -299.03071079 Ry
     estimated scf accuracy    <       0.00000061 Ry

     iteration # 21     ecut=    30.00 Ry     beta=0.30
     Davidson diagonalization with overlap
     ethr =  1.09E-10,  avg # of iterations =  3.2

     total cpu time spent up to now is     4848.6 secs

     total energy              =    -299.03071078 Ry
     Harris-Foulkes estimate   =    -299.03071078 Ry
     estimated scf accuracy    <       0.00000025 Ry

     iteration # 22     ecut=    30.00 Ry     beta=0.30
     Davidson diagonalization with overlap
     ethr =  1.09E-10,  avg # of iterations =  1.0

     total cpu time spent up to now is     4947.1 secs

     total energy              =    -299.03071078 Ry
     Harris-Foulkes estimate   =    -299.03071078 Ry
     estimated scf accuracy    <       0.00000017 Ry

     iteration # 23     ecut=    30.00 Ry     beta=0.30
     Davidson diagonalization with overlap
     ethr =  1.09E-10,  avg # of iterations =  1.0

     negative rho (up, down):  1.353E-06 0.000E+00

     total cpu time spent up to now is     5046.9 secs

     total energy              =    -299.03071076 Ry
     Harris-Foulkes estimate   =    -299.03071078 Ry
     estimated scf accuracy    <       0.00000019 Ry

     iteration # 24     ecut=    30.00 Ry     beta=0.30
     Davidson diagonalization with overlap
     ethr =  1.09E-10,  avg # of iterations =  2.0

     total cpu time spent up to now is     5158.4 secs

     End of self-consistent calculation

          k = 0.0000 0.0000 0.0000 ( 11047 PWs)   bands (ev):

    -7.2274  -7.0418  -6.7397  -6.3248  -5.7923  -5.1486  -4.4011  -3.5536
    -2.6035  -1.5601  -0.4268   0.8656   1.0625   1.0625   1.2332   1.2332
     1.4741   1.5111   1.5111   1.8930   1.8930   2.3852   2.3852   2.4214
     2.4215   2.5987   2.5988   2.8853   2.8854   2.9832   2.9832   3.2714
     3.2715   3.3929   3.6803   3.6803   3.7438   3.7439   4.4474   4.4474
     4.4756   4.4756   4.7140

          k = 0.0000 0.0625 0.0000 ( 11033 PWs)   bands (ev):

    -7.1916  -7.0060  -6.7041  -6.2892  -5.7569  -5.1133  -4.3659  -3.5186
    -2.5687  -1.5254  -0.3922   0.4890   0.6626   0.9000   0.9457   1.0952
     1.2658   1.3341   1.5073   1.5438   1.8327   1.9261   2.4182   2.4289
     2.4596   2.6327   2.9204   3.0161   3.0552   3.0981   3.2302   3.3502
     3.4262   3.5219   3.7136   3.7154   3.9126   4.0698   4.2463   4.5087
     4.6525   4.7468   4.8789

          k = 0.0000 0.1250 0.0000 ( 11039 PWs)   bands (ev):

    -7.0842  -6.8988  -6.5971  -6.1825  -5.6505  -5.0074  -4.2605  -3.4138
    -2.4643  -1.4217  -0.4170  -0.2897  -0.2403   0.0468   0.4410   0.9464
     1.0018   1.1935   1.3640   1.5561   1.6067   1.6422   2.0245   2.2577
     2.5168   2.5574   2.7359   2.9358   3.1148   3.1527   3.4018   3.5261
     3.8122   4.0004   4.0735   4.1429   4.3163   4.5173   4.6072   4.6420
     4.8442   4.9066   5.0162

[...]
    -0.3622  -0.3618   0.6536   0.6539   1.7606   1.7609   2.5987   2.5990
     2.8284   2.8287   3.0574   3.0578   3.1259   3.1262   3.5065   3.5069
     3.6033   3.6036   4.0034   4.0038   4.6009   4.6013   5.0532   5.0535
     5.2964   5.2968   5.3930

          k = 0.1250 0.1250 0.0000 ( 11037 PWs)   bands (ev):

    -6.9365  -6.7367  -6.4172  -6.0051  -5.4787  -4.8429  -4.1033  -3.2654
    -2.3257  -1.2941  -0.2768  -0.2767  -0.1633  -0.0859  -0.0859   0.2191
     0.2192   0.6103   0.6103   1.1072   1.1072   1.1157   1.7202   1.7234
     1.7234   2.4429   2.4430   3.2288   3.2289   3.6483   4.0995   4.0996
     4.2757   4.2758   4.4817   4.4818   4.7262   4.7263   4.9337   5.1828
     5.1828   5.2061   5.2062

          k = 0.1250 0.1875 0.0000 ( 11030 PWs)   bands (ev):

    -6.7580  -6.5584  -6.2392  -5.8276  -5.3017  -4.6667  -3.9279  -3.0910
    -2.1522  -1.1756  -1.1219  -0.9827  -0.6747  -0.2795  -0.1074   0.0073
     0.0825   0.2248   0.3868   0.7769   0.8268   1.2849   1.2942   1.5389
     1.8858   1.9207   2.3671   2.6067   3.2477   3.4137   3.8034   4.1802
     4.3221   4.4593   4.6103   5.0044   5.0258   5.2150   5.2751   5.3590
     5.4291   5.5001   5.5291

          k = 0.1250 0.2500 0.0000 ( 11008 PWs)   bands (ev):

    -6.5084  -6.3090  -5.9904  -5.5794  -5.0544  -4.4203  -3.6827  -2.8470
    -2.0267  -1.9097  -1.8321  -1.5220  -1.1234  -0.8811  -0.6146  -0.0020
     0.1293   0.2459   0.3187   0.6224   0.6994   1.0348   1.4409   1.5213
     1.6259   2.1174   2.1376   2.4476   2.8366   3.4340   3.6342   3.9665
     4.4619   4.5278   4.5348   4.5612   4.6606   4.8926   4.9752   5.2153
     5.2721   5.4258   5.5078

          k = 0.1250 0.3125 0.0000 ( 10981 PWs)   bands (ev):

    -6.1881  -5.9891  -5.6710  -5.2609  -4.7369  -4.1042  -3.3680  -2.8188
    -2.6236  -2.5338  -2.3116  -1.9102  -1.5985  -1.3977  -0.7795  -0.5724
    -0.0623   0.4328   0.5516   0.6221   0.7302   0.9524   1.3056   1.7034
     1.8224   1.8382   2.4145   2.4372   2.6775   3.1436   3.6113   3.7444
     3.8350   3.9595   4.1418   4.4357   4.5309   4.7443   4.8849   5.0281
     5.2100   5.2370   5.5084

          k = 0.1250 0.3750 0.0000 ( 10969 PWs)   bands (ev):

    -5.7975  -5.5990  -5.2816  -4.8725  -4.3499  -3.7187  -3.5479  -3.3519
    -3.0385  -2.9842  -2.6352  -2.1521  -2.1199  -1.4979  -1.2193  -0.7750
    -0.1964   0.0417   0.8028   0.9124   0.9230   1.0373   1.2934   1.7135
     1.9928   2.1794   2.2037   2.7756   2.7994   2.9645   3.0861   3.1499
     3.4510   3.5031   3.8393   4.2967   4.3133   4.3325   4.7601   4.8915
     4.9329   5.2093   5.3706

          k = 0.1250 0.4375 0.0000 ( 10969 PWs)   bands (ev):

    -5.3374  -5.1394  -4.8229  -4.4150  -4.2115  -4.0148  -3.8938  -3.7004
    -3.2954  -3.2644  -2.7779  -2.5322  -2.1529  -1.7026  -1.4259  -0.7728
    -0.6036   0.2460   0.3157   1.2210   1.3274   1.3565   1.4275   1.7736
     2.1417   2.2674   2.4566   2.5236   2.6365   2.6861   2.8216   3.1838
     3.2298   3.2394   3.6844   3.7059   3.9667   4.2469   4.3079   4.7578
     4.9896   5.1787   5.6052

          k = 0.1250-0.5000 0.0000 ( 10954 PWs)   bands (ev):

    -4.8086  -4.8083  -4.6112  -4.6109  -4.2957  -4.2954  -3.8892  -3.8888
    -3.3698  -3.3695  -2.7424  -2.7421  -2.0124  -2.0121  -1.1858  -1.1855
    -0.2603  -0.2600   0.7516   0.7520   1.7383   1.7386   1.7822   1.7824
     2.0359   2.0363   2.2570   2.2573   2.6418   2.6422   3.1017   3.1021
     3.1866   3.1869   3.6579   3.6582   3.7824   3.7828   4.4443   4.4446
     5.2406   5.2409   5.5692

          k = 0.1875 0.1875 0.0000 ( 11009 PWs)   bands (ev):

    -6.5797  -6.3803  -6.0614  -5.6503  -5.1250  -4.4907  -3.7527  -2.9165
    -1.9788  -1.0045  -1.0044  -0.9498  -0.8120  -0.8119  -0.5047  -0.5047
    -0.1108  -0.1107   0.1777   0.3897   0.3897   1.0132   1.0133   1.4534
     1.7389   1.7390   2.0513   2.5334   2.5334   3.4335   3.4335   3.8992
     4.4170   4.4170   4.4920   4.5098   4.8449   5.2237   5.3710   5.4440
     5.4441   5.6323   5.7302

          k = 0.1875 0.2500 0.0000 ( 11000 PWs)   bands (ev):

    -6.3305  -6.1313  -5.8129  -5.4023  -4.8779  -4.2446  -3.5077  -2.6728
    -1.8538  -1.7366  -1.6598  -1.3503  -0.9528  -0.7650  -0.7095  -0.5738
    -0.4454  -0.2674   0.1251   0.1605   0.4154   0.6473   0.8797   1.2763
     1.6869   1.7113   1.9691   2.2821   2.6005   2.7846   3.4979   3.5622
     3.7186   3.7267   4.0352   4.3177   4.4253   4.5774   4.7748   4.9235
     5.4835   5.6003   5.6236

          k = 0.1875 0.3125 0.0000 ( 10987 PWs)   bands (ev):

    -6.0105  -5.8117  -5.4939  -5.0842  -4.5609  -3.9288  -3.1934  -2.6453
    -2.4501  -2.3601  -2.1384  -1.7377  -1.4260  -1.2265  -0.6108  -0.4583
    -0.4015  -0.2679   0.0378   0.0950   0.4529   0.7195   0.8529   1.0349
     1.5624   1.8532   1.9768   2.2658   2.5768   2.7918   2.8520   2.9785
     3.0686   3.2805   3.6695   3.9442   3.9705   4.1640   4.5790   4.7666
     4.9563   5.1680   5.4704

          k = 0.1875 0.3750 0.0000 ( 10952 PWs)   bands (ev):

    -5.6204  -5.4220  -5.1049  -4.6963  -4.1743  -3.5438  -3.3735  -3.1776
    -2.8646  -2.8102  -2.4617  -1.9790  -1.9471  -1.3262  -1.0474  -0.6058
    -0.0848  -0.0266   0.1055   0.1922   0.4363   0.7927   1.0864   1.1691
     1.3289   1.9317   2.0203   2.1482   2.2855   2.4269   2.5842   2.6425
     2.9270   2.9862   3.2288   3.4639   3.4718   4.0762   4.2785   4.5743
     4.7578   4.9519   5.0032

          k = 0.1875 0.4375 0.0000 ( 10952 PWs)   bands (ev):

    -5.1608  -4.9630  -4.6468  -4.2393  -4.0363  -3.8398  -3.7188  -3.5257
    -3.1211  -3.0900  -2.6043  -2.3586  -1.9802  -1.5300  -1.2545  -0.6020
    -0.4348   0.3553   0.4126   0.4461   0.5841   0.8477   1.2707   1.4291
     1.4529   1.5246   1.7229   1.7643   1.9514   2.3379   2.3610   2.6271
     2.7821   2.8752   3.0691   3.3333   3.4785   3.8652   3.8780   4.1482
     4.4386   4.7940   4.9476

          k = 0.1875-0.5000 0.0000 ( 10962 PWs)   bands (ev):

    -4.6327  -4.6323  -4.4354  -4.4351  -4.1202  -4.1199  -3.7142  -3.7138
    -3.1954  -3.1951  -2.5688  -2.5684  -1.8397  -1.8394  -1.0146  -1.0143
    -0.0924  -0.0921   0.8364   0.8368   0.9303   0.9305   1.0498   1.0501
     1.3972   1.3975   1.7686   1.7689   2.0580   2.0583   2.2657   2.2660
     2.8712   2.8716   3.2937   3.2940   3.6037   3.6040   3.8521   3.8525
     4.3982   4.3985   5.2727

          k = 0.2500 0.2500 0.0000 ( 10971 PWs)   bands (ev):

    -6.0815  -5.8826  -5.5646  -5.1548  -4.6312  -3.9989  -3.2632  -2.4296
    -1.6128  -1.6128  -1.4949  -1.4192  -1.4192  -1.1104  -1.1103  -0.7142
    -0.7142  -0.4699  -0.2108  -0.2108   0.4167   0.4167   0.6516   1.1436
     1.1436   1.9091   1.9434   1.9435   2.5111   2.7319   2.8503   2.8504
     2.9186   3.2208   3.6105   3.8451   3.8452   4.1052   4.5165   4.7080
     4.9334   4.9335   5.4125

          k = 0.2500 0.3125 0.0000 ( 10980 PWs)   bands (ev):

    -5.7622  -5.5636  -5.2462  -4.8372  -4.3147  -3.6836  -2.9493  -2.4025
    -2.2078  -2.1176  -1.8968  -1.4974  -1.3036  -1.1851  -1.1112  -0.9876
    -0.8034  -0.4085  -0.3784  -0.1631   0.1161   0.3456   0.7444   0.9510
     1.1762   1.4432   1.8935   2.0697   2.1613   2.2640   2.2950   2.4602
     2.7959   2.8618   3.0378   3.2037   3.3495   3.9548   4.0628   4.2706
     4.6360   4.8279   5.1493

          k = 0.2500 0.3750 0.0000 ( 10944 PWs)   bands (ev):

    -5.3727  -5.1746  -4.8580  -4.4500  -3.9288  -3.2992  -3.1296  -2.9340
    -2.6213  -2.5668  -2.2192  -1.7371  -1.7059  -1.0877  -0.9260  -0.8077
    -0.7351  -0.4281  -0.3781  -0.0118   0.2087   0.3907   0.5628   1.1013
     1.2380   1.2542   1.3846   1.5290   1.7609   1.8077   2.1484   2.3884
     2.5848   2.6145   2.6839   3.1363   3.2902   3.4879   3.5204   3.9625
     4.5100   4.7344   4.7636

          k = 0.2500 0.4375 0.0000 ( 10976 PWs)   bands (ev):

    -4.9139  -4.7163  -4.4005  -3.9938  -3.7914  -3.5951  -3.4741  -3.2814
    -2.8775  -2.8464  -2.3616  -2.1162  -1.7389  -1.2895  -1.0160  -0.4831
    -0.3651  -0.2921  -0.2136   0.0387   0.3989   0.5740   0.6637   0.7623
     0.7907   0.9348   1.1376   1.5110   1.5402   1.7458   1.7894   2.0095
     2.2538   2.6166   2.8314   3.0279   3.0788   3.3515   3.5884   3.8913
     4.1487   4.1931   4.6095

          k = 0.2500-0.5000 0.0000 ( 10962 PWs)   bands (ev):

    -4.3867  -4.3864  -4.1897  -4.1894  -3.8749  -3.8746  -3.4694  -3.4691
    -2.9514  -2.9511  -2.3260  -2.3256  -1.5986  -1.5983  -0.7766  -0.7763
     0.0264   0.0268   0.1103   0.1107   0.2530   0.2532   0.5207   0.5210
     0.9433   0.9437   1.1871   1.1874   1.4396   1.4399   2.0369   2.0373
     2.2948   2.2951   2.7478   2.7481   3.5459   3.5463   3.5498   3.5502
     4.1108   4.1112   4.4801

          k = 0.3125 0.3125 0.0000 ( 10986 PWs)   bands (ev):

    -5.4435  -5.2452  -4.9285  -4.5203  -3.9989  -3.3691  -2.6363  -2.0909
    -2.0909  -1.8969  -1.8968  -1.8064  -1.5872  -1.5871  -1.1895  -1.1895
    -0.8764  -0.6835  -0.6835  -0.0533  -0.0532   0.1407   0.6734   0.6734
     1.1732   1.1874   1.4633   1.4774   1.4775   1.6964   2.0842   2.3882
     2.3883   2.5181   2.6194   3.0699   3.2267   3.3880   3.3881   3.8998
     4.4832   4.4832   4.7017

          k = 0.3125 0.3750 0.0000 ( 10964 PWs)   bands (ev):

    -5.0549  -4.8572  -4.5412  -4.1340  -3.6137  -2.9854  -2.8164  -2.6213
    -2.3094  -2.2546  -1.9087  -1.7116  -1.5185  -1.4272  -1.3971  -1.2095
    -0.8135  -0.7853  -0.5017  -0.2878  -0.0579   0.3394   0.4419   0.5299
     0.6601   0.7714   1.0061   1.0433   1.3805   1.6545   1.6679   1.8676
     1.8796   2.4877   2.6393   2.8107   2.8941   3.2240   3.4564   3.6690
     3.8818   4.0220   4.7606

          k = 0.3125 0.4375 0.0000 ( 10952 PWs)   bands (ev):

    -4.5971  -4.3999  -4.0847  -3.6788  -3.4771  -3.2811  -3.1600  -2.9678
    -2.5650  -2.5337  -2.0505  -1.8056  -1.4304  -1.2644  -1.0723  -0.9822
    -0.7647  -0.7179  -0.3481  -0.1728  -0.0918   0.0526   0.0587   0.2206
     0.3229   0.7447   0.7673   0.9832   1.0473   1.2422   1.4761   1.8399
     2.0543   2.0940   2.2853   2.5526   3.1575   3.1938   3.3509   3.3524
     3.9143   4.1863   4.2890

          k = 0.3125-0.5000 0.0000 ( 10950 PWs)   bands (ev):

    -4.0711  -4.0707  -3.8744  -3.8742  -3.5602  -3.5599  -3.1555  -3.1552
    -2.6387  -2.6384  -2.0150  -2.0147  -1.2905  -1.2902  -0.7519  -0.7515
    -0.5600  -0.5597  -0.4853  -0.4849  -0.2296  -0.2293   0.1337   0.1341
     0.4890   0.4893   0.6682   0.6686   1.2756   1.2759   1.4760   1.4764
     1.9913   1.9916   2.5644   2.5648   2.8184   2.8187   3.6295   3.6298
     3.9330   3.9333   4.3467

          k = 0.3750 0.3750 0.0000 ( 10962 PWs)   bands (ev):

    -4.6674  -4.4701  -4.1549  -3.7488  -3.2297  -2.6030  -2.4347  -2.4346
    -2.2403  -2.2403  -1.9296  -1.9296  -1.8745  -1.5307  -1.5307  -1.0508
    -1.0231  -1.0230  -0.3914  -0.3913  -0.2392  -0.1594  -0.0143   0.2567
     0.3348   0.3348   0.6782   0.9150   1.1419   1.1420   1.1761   1.7741
     2.0269   2.0555   2.0556   2.4876   3.0583   3.0584   3.2843   3.2873
     3.8487   4.1568   4.1568

          k = 0.3750 0.4375 0.0000 ( 10953 PWs)   bands (ev):

    -4.2108  -4.0141  -3.6996  -3.2945  -3.0936  -2.8982  -2.7773  -2.5859
    -2.1843  -2.1529  -1.9852  -1.7917  -1.6717  -1.4820  -1.4278  -1.0851
    -1.0581  -0.8867  -0.6945  -0.6212  -0.5588  -0.3641  -0.3283   0.0007
     0.0672   0.3520   0.4996   0.5341   0.7748   1.1424   1.3410   1.3980
     1.6015   1.8592   2.3719   2.4305   2.5468   2.6873   3.4046   3.4981
     3.6200   3.8021   4.2151

          k = 0.3750-0.5000 0.0000 ( 10952 PWs)   bands (ev):

    -3.6862  -3.6859  -3.4900  -3.4897  -3.1764  -3.1761  -2.7729  -2.7725
    -2.2577  -2.2574  -1.6370  -1.6367  -1.4684  -1.4681  -1.2759  -1.2756
    -0.9676  -0.9673  -0.9229  -0.9226  -0.5511  -0.5508  -0.1413  -0.1410
     0.0133   0.0137   0.5650   0.5654   0.8441   0.8445   1.2755   1.2758
     1.8529   1.8532   2.0862   2.0866   2.9579   2.9582   2.9963   2.9967
     3.9903   3.9907   4.2120

          k = 0.4375 0.4375 0.0000 ( 10986 PWs)   bands (ev):

    -3.7559  -3.5596  -3.2458  -2.8420  -2.6420  -2.6420  -2.4470  -2.4470
    -2.3267  -2.1358  -2.1358  -1.7362  -1.7361  -1.7057  -1.5366  -1.3441
    -1.2276  -1.2275  -1.0356  -0.9910  -0.6189  -0.5954  -0.5953  -0.2079
    -0.0558   0.1301   0.1302   0.4971   0.7766   0.9395   0.9396   1.2079
     1.7859   1.8548   1.8548   2.0195   2.8591   2.8591   2.8912   2.9307
     3.9254   3.9595   3.9596

          k = 0.4375-0.5000 0.0000 ( 10998 PWs)   bands (ev):

    -3.2328  -3.2324  -3.0370  -3.0367  -2.7244  -2.7241  -2.3226  -2.3222
    -2.1226  -2.1222  -1.9289  -1.9287  -1.8093  -1.8090  -1.6193  -1.6190
    -1.2216  -1.2213  -1.1948  -1.1945  -0.6950  -0.6947  -0.4642  -0.4639
    -0.0698  -0.0695   0.3632   0.3636   0.6394   0.6397   1.2628   1.2631
     1.4676   1.4679   2.2376   2.2380   2.4140   2.4143   3.2713   3.2717
     3.4881   3.4883   4.3676

          k =-0.5000-0.5000 0.0000 ( 10956 PWs)   bands (ev):

    -2.7116  -2.7111  -2.7111  -2.7108  -2.5163  -2.5161  -2.5161  -2.5158
    -2.2048  -2.2044  -2.2044  -2.2042  -1.8052  -1.8048  -1.8048  -1.8045
    -1.2960  -1.2956  -1.2956  -1.2953  -0.6634  -0.6630  -0.6630  -0.6627
     0.0616   0.0620   0.0620   0.0622   0.8716   0.8720   0.8720   0.8723
     1.7874   1.7878   1.7878   1.7881   2.7923   2.7927   2.7927   2.7930
     3.8938   3.8938   3.8941

     the Fermi energy is     3.9822 ev

!    total energy              =    -299.03112231 Ry
     Harris-Foulkes estimate   =    -299.03112232 Ry
     estimated scf accuracy    <          4.2E-09 Ry

     The total energy is the sum of the following terms:

     one-electron contribution =   -1350.13950984 Ry
     hartree contribution      =     700.34982745 Ry
     xc contribution           =    -240.36050868 Ry
     ewald contribution        =     591.11860260 Ry
     smearing contrib. (-TS)   =       0.00046616 Ry

     convergence has been achieved in  12 iterations

     Forces acting on atoms (Ry/au):

     atom    1 type  1   force =     0.00000000    0.00000000    0.00005752
     atom    2 type  1   force =     0.00000000    0.00000000    0.00005655
     atom    3 type  1   force =     0.00000000    0.00000000   -0.00058512
     atom    4 type  1   force =     0.00000000    0.00000000   -0.00058512
     atom    5 type  1   force =     0.00000000    0.00000000   -0.00084111
     atom    6 type  1   force =     0.00000000    0.00000000   -0.00083972
     atom    7 type  1   force =     0.00000000    0.00000000    0.00014531
     atom    8 type  1   force =     0.00000000    0.00000000    0.00014531
     atom    9 type  1   force =     0.00000000    0.00000000    0.00023469
     atom   10 type  1   force =     0.00000000    0.00000000    0.00023866
     atom   11 type  1   force =     0.00000000    0.00000000    0.00018658
     atom   12 type  1   force =     0.00000000    0.00000000    0.00018658
     atom   13 type  1   force =     0.00000000    0.00000000   -0.00018870
     atom   14 type  1   force =     0.00000000    0.00000000   -0.00018893
     atom   15 type  1   force =     0.00000000    0.00000000   -0.00023192
     atom   16 type  1   force =     0.00000000    0.00000000   -0.00023192
     atom   17 type  1   force =     0.00000000    0.00000000   -0.00014782
     atom   18 type  1   force =     0.00000000    0.00000000   -0.00015209
     atom   19 type  1   force =     0.00000000    0.00000000    0.00084418
     atom   20 type  1   force =     0.00000000    0.00000000    0.00084418
     atom   21 type  1   force =     0.00000000    0.00000000    0.00058236
     atom   22 type  1   force =     0.00000000    0.00000000    0.00058181
     atom   23 type  1   force =     0.00000000    0.00000000   -0.00005564
     atom   24 type  1   force =     0.00000000    0.00000000   -0.00005564

     Total force =     0.002159     Total SCF correction =     0.000104


     entering subroutine stress ...

          total   stress  (Ry/bohr**3)                   (kbar)     P=   -9.60
  -0.00009038   0.00000000   0.00000000        -13.30      0.00      0.00
   0.00000000  -0.00009038   0.00000000          0.00    -13.30      0.00
   0.00000000   0.00000000  -0.00001501          0.00      0.00     -2.21


     bfgs converged in  10 scf cycles and   9 bfgs steps
     (criteria: energy <  1.0E-04, force <  1.0E-03)

     End of BFGS Geometry Optimization

     Final energy   =    -299.0311223137 Ry
Begin final coordinates

ATOMIC_POSITIONS (crystal)
Al       0.000000000   0.000000000  -0.001046819
Al       0.500000000   0.500000000  -0.001048776
Al       0.500000000   0.000000000   0.055554546
Al       0.000000000   0.500000000   0.055554546
Al       0.000000000   0.000000000   0.111442364
Al       0.500000000   0.500000000   0.111443997
Al       0.500000000   0.000000000   0.166934194
Al       0.000000000   0.500000000   0.166934194
Al       0.000000000   0.000000000   0.222300209
Al       0.500000000   0.500000000   0.222292886
Al       0.500000000   0.000000000   0.277768484
Al       0.000000000   0.500000000   0.277768484
Al       0.000000000   0.000000000   0.333342395
Al       0.500000000   0.500000000   0.333340898
Al       0.500000000   0.000000000   0.388815597
Al       0.000000000   0.500000000   0.388815597
Al       0.000000000   0.000000000   0.444172946
Al       0.500000000   0.500000000   0.444178662
Al       0.500000000   0.000000000   0.499669073
Al       0.000000000   0.500000000   0.499669073
Al       0.000000000   0.000000000   0.555558852
Al       0.500000000   0.500000000   0.555557274
Al       0.500000000   0.000000000   0.612157328
Al       0.000000000   0.500000000   0.612157328
End final coordinates



     Writing output data file Al_100_6_3.save

     init_run     :     91.37s CPU    100.56s WALL (       1 calls)
     electrons    :  12338.91s CPU  13723.87s WALL (      10 calls)
     update_pot   :      7.54s CPU      7.70s WALL (       9 calls)
     forces       :    213.96s CPU    214.52s WALL (      10 calls)
     stress       :    316.78s CPU    317.99s WALL (      10 calls)

     Called by init_run:
     wfcinit      :     89.81s CPU     98.94s WALL (       1 calls)
     potinit      :      0.38s CPU      0.41s WALL (       1 calls)

     Called by electrons:
     c_bands      :  10738.74s CPU  11854.25s WALL (     125 calls)
     sum_band     :   1446.99s CPU   1700.59s WALL (     125 calls)
     v_of_rho     :     29.34s CPU     30.63s WALL (     132 calls)
     newd         :     42.96s CPU     43.16s WALL (     132 calls)
     mix_rho      :     83.74s CPU     97.73s WALL (     125 calls)

     Called by c_bands:
     init_us_2    :     65.25s CPU     71.03s WALL (   12195 calls)
     cegterg      :  10647.86s CPU  11754.17s WALL (    5625 calls)

     Called by *egterg:
     h_psi        :   6145.17s CPU   7101.48s WALL (   16803 calls)
     s_psi        :   1241.00s CPU   1248.51s WALL (   16803 calls)
     g_psi        :     15.58s CPU     16.83s WALL (   11133 calls)
     cdiaghg      :     91.32s CPU     96.38s WALL (   16218 calls)

     Called by h_psi:
     add_vuspsi   :   1239.47s CPU   1244.74s WALL (   16803 calls)

     General routines
     calbec       :   1938.34s CPU   1953.39s WALL (   23328 calls)
     fft          :     22.86s CPU     25.07s WALL (    2343 calls)
     ffts         :     48.03s CPU     57.55s WALL (   12477 calls)
     fftw         :   4115.66s CPU   5212.27s WALL ( 1320199 calls)
     interpolate  :      3.65s CPU      4.31s WALL (     257 calls)
     davcio       :      0.01s CPU      1.14s WALL (      45 calls)

     Parallel routines
     fft_scatter  :    165.10s CPU    225.63s WALL ( 1335019 calls)

     PWSCF        :     3h36m CPU        3h59m WALL


   This run was terminated on:   6:26:44  27May2020            

=------------------------------------------------------------------------------=
   JOB DONE.
=------------------------------------------------------------------------------=
