--------------------------------------------------------------------------
[[2773,1],0]: A high-performance Open MPI point-to-point messaging module
was unable to find any relevant network interfaces:

Module: OpenFabrics (openib)
  Host: ubuntu

Another transport will be used instead, although this may result in
lower performance.
--------------------------------------------------------------------------

     Program PWSCF v.5.1 starts on 26May2020 at 20:35:10 

     This program is part of the open-source Quantum ESPRESSO suite
     for quantum simulation of materials; please cite
         "P. Giannozzi et al., J. Phys.:Condens. Matter 21 395502 (2009);
          URL http://www.quantum-espresso.org", 
     in publications or presentations arising from this work. More details at
     http://www.quantum-espresso.org/quote

     Parallel version (MPI), running on     1 processors
     Reading input from Al_100_bulk_1.pw.in

     Current dimensions of program PWSCF are:
     Max number of different atomic species (ntypx) = 10
     Max number of k-points (npk) =  40000
     Max angular momentum in pseudopotentials (lmaxx) =  3

     Subspace diagonalization in iterative solution of the eigenvalue problem:
     a serial algorithm will be used

     Found symmetry operation: I + ( -0.5000 -0.5000  0.0000)
     This is a supercell, fractional translations are disabled

     G-vector sticks info
     --------------------
     sticks:   dense  smooth     PW     G-vecs:    dense   smooth      PW
     Sum         681     553    177                40865    29327    4997



     bravais-lattice index     =            6
     lattice parameter (alat)  =       7.6050  a.u.
     unit-cell volume          =    1319.5289 (a.u.)^3
     number of atoms/cell      =            8
     number of atomic types    =            1
     number of electrons       =        24.00
     number of Kohn-Sham states=           16
     kinetic-energy cutoff     =      30.0000  Ry
     charge density cutoff     =     150.0000  Ry
     convergence threshold     =      1.0E-06
     mixing beta               =       0.3000
     number of iterations used =            8  local-TF  mixing
     Exchange-correlation      =  SLA  PW   PBE  PBE ( 1  4  3  4 0)
     nstep                     =           50


     celldm(1)=   7.605000  celldm(2)=   0.000000  celldm(3)=   3.000000
     celldm(4)=   0.000000  celldm(5)=   0.000000  celldm(6)=   0.000000

     crystal axes: (cart. coord. in units of alat)
               a(1) = (   1.000000   0.000000   0.000000 )  
               a(2) = (   0.000000   1.000000   0.000000 )  
               a(3) = (   0.000000   0.000000   3.000000 )  

     reciprocal axes: (cart. coord. in units 2 pi/alat)
               b(1) = (  1.000000  0.000000  0.000000 )  
               b(2) = (  0.000000  1.000000  0.000000 )  
               b(3) = (  0.000000  0.000000  0.333333 )  


     PseudoPot. # 1 for Al read from file:
     ./Al.pbe-n-van.UPF
     MD5 check sum: b11ded24487aef5bc42d5c7a2e22a7b6
     Pseudo is Ultrasoft + core correction, Zval =  3.0
     Generated by new atomic code, or converted to UPF format
     Using radial grid of  893 points,  2 beta functions with: 
                l(1) =   0
                l(2) =   1
     Q(r) pseudized with  8 coefficients,  rinner =    0.900   0.900   0.900


     atomic species   valence    mass     pseudopotential
        Al             3.00    26.98000     Al( 1.00)

      8 Sym. Ops. (no inversion) found



   Cartesian axes

     site n.     atom                  positions (alat units)
         1           Al  tau(   1) = (   0.0000000   0.0000000   0.0000000  )
         2           Al  tau(   2) = (   0.5000000   0.5000000   0.0000000  )
         3           Al  tau(   3) = (   0.5000000   0.0000000   0.5000000  )
         4           Al  tau(   4) = (   0.0000000   0.5000000   0.5000000  )
         5           Al  tau(   5) = (   0.0000000   0.0000000   1.0000000  )
         6           Al  tau(   6) = (   0.5000000   0.5000000   1.0000000  )
         7           Al  tau(   7) = (   0.5000000   0.0000000   1.5000000  )
         8           Al  tau(   8) = (   0.0000000   0.5000000   1.5000000  )

     number of k points=    45  Marzari-Vanderbilt smearing, width (Ry)=  0.0250
                       cart. coord. in units 2pi/alat
        k(    1) = (   0.0000000   0.0000000   0.0000000), wk =   0.0078125
        k(    2) = (   0.0000000   0.0625000   0.0000000), wk =   0.0312500
        k(    3) = (   0.0000000   0.1250000   0.0000000), wk =   0.0312500
        k(    4) = (   0.0000000   0.1875000   0.0000000), wk =   0.0312500
        k(    5) = (   0.0000000   0.2500000   0.0000000), wk =   0.0312500
        k(    6) = (   0.0000000   0.3125000   0.0000000), wk =   0.0312500
        k(    7) = (   0.0000000   0.3750000   0.0000000), wk =   0.0312500
        k(    8) = (   0.0000000   0.4375000   0.0000000), wk =   0.0312500
        k(    9) = (   0.0000000  -0.5000000   0.0000000), wk =   0.0156250
        k(   10) = (   0.0625000   0.0625000   0.0000000), wk =   0.0312500
        k(   11) = (   0.0625000   0.1250000   0.0000000), wk =   0.0625000
        k(   12) = (   0.0625000   0.1875000   0.0000000), wk =   0.0625000
        k(   13) = (   0.0625000   0.2500000   0.0000000), wk =   0.0625000
        k(   14) = (   0.0625000   0.3125000   0.0000000), wk =   0.0625000
        k(   15) = (   0.0625000   0.3750000   0.0000000), wk =   0.0625000
        k(   16) = (   0.0625000   0.4375000   0.0000000), wk =   0.0625000
        k(   17) = (   0.0625000  -0.5000000   0.0000000), wk =   0.0312500
        k(   18) = (   0.1250000   0.1250000   0.0000000), wk =   0.0312500
        k(   19) = (   0.1250000   0.1875000   0.0000000), wk =   0.0625000
        k(   20) = (   0.1250000   0.2500000   0.0000000), wk =   0.0625000
        k(   21) = (   0.1250000   0.3125000   0.0000000), wk =   0.0625000
        k(   22) = (   0.1250000   0.3750000   0.0000000), wk =   0.0625000
        k(   23) = (   0.1250000   0.4375000   0.0000000), wk =   0.0625000
        k(   24) = (   0.1250000  -0.5000000   0.0000000), wk =   0.0312500
        k(   25) = (   0.1875000   0.1875000   0.0000000), wk =   0.0312500
        k(   26) = (   0.1875000   0.2500000   0.0000000), wk =   0.0625000
        k(   27) = (   0.1875000   0.3125000   0.0000000), wk =   0.0625000
        k(   28) = (   0.1875000   0.3750000   0.0000000), wk =   0.0625000
        k(   29) = (   0.1875000   0.4375000   0.0000000), wk =   0.0625000
        k(   30) = (   0.1875000  -0.5000000   0.0000000), wk =   0.0312500
        k(   31) = (   0.2500000   0.2500000   0.0000000), wk =   0.0312500
        k(   32) = (   0.2500000   0.3125000   0.0000000), wk =   0.0625000
        k(   33) = (   0.2500000   0.3750000   0.0000000), wk =   0.0625000
        k(   34) = (   0.2500000   0.4375000   0.0000000), wk =   0.0625000
        k(   35) = (   0.2500000  -0.5000000   0.0000000), wk =   0.0312500
        k(   36) = (   0.3125000   0.3125000   0.0000000), wk =   0.0312500
        k(   37) = (   0.3125000   0.3750000   0.0000000), wk =   0.0625000
        k(   38) = (   0.3125000   0.4375000   0.0000000), wk =   0.0625000
        k(   39) = (   0.3125000  -0.5000000   0.0000000), wk =   0.0312500
        k(   40) = (   0.3750000   0.3750000   0.0000000), wk =   0.0312500
        k(   41) = (   0.3750000   0.4375000   0.0000000), wk =   0.0625000
        k(   42) = (   0.3750000  -0.5000000   0.0000000), wk =   0.0312500
        k(   43) = (   0.4375000   0.4375000   0.0000000), wk =   0.0312500
        k(   44) = (   0.4375000  -0.5000000   0.0000000), wk =   0.0312500
        k(   45) = (  -0.5000000  -0.5000000   0.0000000), wk =   0.0078125

     Dense  grid:    40865 G-vectors     FFT dimensions: (  30,  30,  90)

     Smooth grid:    29327 G-vectors     FFT dimensions: (  27,  27,  80)

     Largest allocated arrays     est. size (Mb)     dimensions
        Kohn-Sham Wavefunctions         0.90 Mb     (    3682,   16)
        NL pseudopotentials             1.80 Mb     (    3682,   32)
        Each V/rho on FFT grid          1.24 Mb     (   81000)
        Each G-vector array             0.31 Mb     (   40865)
        G-vector shells                 0.01 Mb     (     734)
     Largest temporary arrays     est. size (Mb)     dimensions
        Auxiliary wavefunctions         3.60 Mb     (    3682,   64)
        Each subspace H/S matrix        0.06 Mb     (      64,   64)
        Each <psi_i|beta_j> matrix      0.01 Mb     (      32,   16)
        Arrays for rho mixing           9.89 Mb     (   81000,    8)

     Initial potential from superposition of free atoms

     starting charge   23.98028, renormalised to   24.00000
     Starting wfc are   32 randomized atomic wfcs

     total cpu time spent up to now is        7.4 secs

     per-process dynamical memory:    65.7 Mb

     Self-consistent Calculation

     iteration #  1     ecut=    30.00 Ry     beta=0.30
     Davidson diagonalization with overlap
     ethr =  1.00E-02,  avg # of iterations =  2.7

     total cpu time spent up to now is       19.3 secs

     total energy              =     -99.63442242 Ry
     Harris-Foulkes estimate   =     -99.66922493 Ry
     estimated scf accuracy    <       0.55691901 Ry

     iteration #  2     ecut=    30.00 Ry     beta=0.30
     Davidson diagonalization with overlap
     ethr =  2.32E-03,  avg # of iterations =  1.0

     negative rho (up, down):  3.143E-05 0.000E+00

     total cpu time spent up to now is       27.1 secs

     total energy              =     -99.50747078 Ry
     Harris-Foulkes estimate   =     -99.64097317 Ry
     estimated scf accuracy    <       0.41091957 Ry

     iteration #  3     ecut=    30.00 Ry     beta=0.30
     Davidson diagonalization with overlap
     ethr =  1.71E-03,  avg # of iterations =  2.3

     total cpu time spent up to now is       36.7 secs

     total energy              =     -99.57022922 Ry
     Harris-Foulkes estimate   =     -99.60374016 Ry
     estimated scf accuracy    <       0.17538055 Ry

     iteration #  4     ecut=    30.00 Ry     beta=0.30
     Davidson diagonalization with overlap
     ethr =  7.31E-04,  avg # of iterations =  1.8

     total cpu time spent up to now is       45.1 secs

     total energy              =     -99.58294466 Ry
     Harris-Foulkes estimate   =     -99.58424400 Ry
     estimated scf accuracy    <       0.01005682 Ry

     iteration #  5     ecut=    30.00 Ry     beta=0.30
     Davidson diagonalization with overlap
     ethr =  4.19E-05,  avg # of iterations =  3.5

     total cpu time spent up to now is       55.2 secs

     total energy              =     -99.58401705 Ry
     Harris-Foulkes estimate   =     -99.58444559 Ry
     estimated scf accuracy    <       0.00356178 Ry

     iteration #  6     ecut=    30.00 Ry     beta=0.30
     Davidson diagonalization with overlap
     ethr =  1.48E-05,  avg # of iterations =  3.2

     total cpu time spent up to now is       67.0 secs

     total energy              =     -99.58395352 Ry
     Harris-Foulkes estimate   =     -99.58629929 Ry
     estimated scf accuracy    <       0.02367543 Ry

     iteration #  7     ecut=    30.00 Ry     beta=0.30
     Davidson diagonalization with overlap
     ethr =  1.48E-05,  avg # of iterations =  2.0

     total cpu time spent up to now is       75.8 secs

     total energy              =     -99.58382413 Ry
     Harris-Foulkes estimate   =     -99.58453545 Ry
     estimated scf accuracy    <       0.00552531 Ry

     iteration #  8     ecut=    30.00 Ry     beta=0.30
     Davidson diagonalization with overlap
     ethr =  1.48E-05,  avg # of iterations =  2.2

     total cpu time spent up to now is       84.7 secs

     total energy              =     -99.58417939 Ry
     Harris-Foulkes estimate   =     -99.58417179 Ry
     estimated scf accuracy    <       0.00016887 Ry

     iteration #  9     ecut=    30.00 Ry     beta=0.30
     Davidson diagonalization with overlap
     ethr =  7.04E-07,  avg # of iterations =  2.5

     total cpu time spent up to now is       93.1 secs

     total energy              =     -99.58415096 Ry
     Harris-Foulkes estimate   =     -99.58418480 Ry
     estimated scf accuracy    <       0.00019505 Ry

     iteration # 10     ecut=    30.00 Ry     beta=0.30
     Davidson diagonalization with overlap
     ethr =  7.04E-07,  avg # of iterations =  2.0

     total cpu time spent up to now is      102.2 secs

     End of self-consistent calculation

          k = 0.0000 0.0000 0.0000 (  3655 PWs)   bands (ev):

    -6.7641  -5.3635  -3.1789  -0.2614   1.4911   1.4911   1.9411   2.7818
     2.7818   2.8645   2.8645   4.3070   4.3070   4.8271   4.8271   5.9415

          k = 0.0000 0.0625 0.0000 (  3657 PWs)   bands (ev):

    -6.7284  -5.3281  -3.1439  -0.2267   0.9266   1.5241   1.9743   2.2351
     2.8150   2.9247   3.4770   4.2686   4.4053   4.8601   4.8855   5.9721

          k = 0.0000 0.1250 0.0000 (  3663 PWs)   bands (ev):

    -6.6213  -5.2219  -3.0388  -0.1225   0.0270   1.3612   1.6224   2.0742
     2.9132   3.0292   3.4509   4.3271   4.7003   4.9581   5.8974   6.1006

          k = 0.0000 0.1875 0.0000 (  3671 PWs)   bands (ev):

    -6.4430  -5.0450  -2.8639  -0.8700   0.0507   0.4796   1.7862   2.2402
     2.5883   3.0772   3.1978   4.5716   5.1216   5.3667   5.8166   6.2085

          k = 0.0000 0.2500 0.0000 (  3665 PWs)   bands (ev):

    -6.1937  -4.7977  -2.6194  -1.7187  -0.3598   0.2929   1.7635   2.0164
     2.4731   3.3068   3.4257   4.6131   4.8094   5.3499   6.2211   6.3860

          k = 0.0000 0.3125 0.0000 (  3653 PWs)   bands (ev):

    -5.8739  -4.4801  -2.5091  -2.3050  -1.1427   0.6036   0.9919   2.3114
     2.7714   3.6018   3.6146   3.9916   5.0855   5.4653   5.6445   5.9860

          k = 0.0000 0.3750 0.0000 (  3658 PWs)   bands (ev):

    -5.4838  -4.0932  -3.2372  -1.9225  -1.8645   0.2796   0.9812   2.6731
     3.1191   3.1354   3.9631   4.1687   4.7754   5.1288   5.6362   6.0035

          k = 0.0000 0.4375 0.0000 (  3664 PWs)   bands (ev):

    -5.0243  -3.9001  -3.6373  -2.5221  -1.4716  -0.3696   1.4249   2.5010
     3.1002   3.5634   4.1511   4.3899   4.5865   4.5971   5.4387   5.6065

          k = 0.0000-0.5000 0.0000 (  3658 PWs)   bands (ev):

    -4.4961  -4.4961  -3.1133  -3.1133  -0.9536  -0.9536   1.9327   1.9327
     3.5928   3.5928   4.0532   4.0532   4.8817   4.8817   5.0723   5.0723

          k = 0.0625 0.0625 0.0000 (  3665 PWs)   bands (ev):

    -6.6927  -5.2927  -3.1089  -0.1919   0.9592   0.9592   2.0077   2.2771
     2.2771   3.5367   3.5367   4.3419   4.3419   4.9340   4.9340   6.0020

          k = 0.0625 0.1250 0.0000 (  3670 PWs)   bands (ev):

    -6.5856  -5.1865  -3.0039  -0.0879   0.0609   1.0531   1.4062   2.1072
     2.3791   3.4884   3.6452   4.4410   4.5824   5.0661   5.9688   6.0860

          k = 0.0625 0.1875 0.0000 (  3682 PWs)   bands (ev):

    -6.4074  -5.0097  -2.8290  -0.8356   0.0853   0.5108   1.2328   2.2733
     2.5347   2.6348   3.8110   4.5922   5.1485   5.4636   5.8572   6.1702

          k = 0.0625 0.2500 0.0000 (  3675 PWs)   bands (ev):

    -6.1582  -4.7624  -2.5844  -1.6842  -0.3260   0.3274   1.4636   1.7965
     2.5059   2.7801   4.0191   4.5929   4.9394   5.3892   5.6657   6.5121

          k = 0.0625 0.3125 0.0000 (  3649 PWs)   bands (ev):

    -5.8384  -4.4449  -2.4745  -2.2702  -1.1085   0.6379   1.0254   1.7626
     2.8043   3.0780   3.8216   4.4182   4.9353   5.1666   5.6153   6.0596

          k = 0.0625 0.3750 0.0000 (  3647 PWs)   bands (ev):

    -5.4484  -4.0581  -3.2024  -1.8878  -1.8301   0.3138   1.0151   2.1257
     3.1674   3.1713   3.4405   4.2507   4.7535   5.2429   5.5189   5.5602

          k = 0.0625 0.4375 0.0000 (  3655 PWs)   bands (ev):

    -4.9890  -3.8651  -3.6023  -2.4874  -1.4371  -0.3353   1.4581   2.4738
     2.6299   3.5929   3.6262   3.8642   4.6557   4.9397   5.1744   5.9402

          k = 0.0625-0.5000 0.0000 (  3662 PWs)   bands (ev):

    -4.4610  -4.4610  -3.0784  -3.0784  -0.9193  -0.9193   1.9637   1.9637
     3.0670   3.0670   4.0607   4.0607   4.4037   4.4037   5.6543   5.6543

          k = 0.1250 0.1250 0.0000 (  3681 PWs)   bands (ev):

    -6.4787  -5.0804  -2.8989   0.0160   0.1610   0.1610   1.5038   1.5038
     2.2066   3.5868   3.5868   4.7158   4.7158   6.0787   6.0787   6.1041

          k = 0.1250 0.1875 0.0000 (  3682 PWs)   bands (ev):

    -6.3006  -4.9037  -2.7242  -0.7331   0.1890   0.3184   0.6331   1.6709
     2.3727   2.7233   3.7457   4.8702   5.5862   5.6002   5.8650   6.2624

          k = 0.1250 0.2500 0.0000 (  3672 PWs)   bands (ev):

    -6.0515  -4.6566  -2.4797  -1.5812  -0.2268   0.4306   0.5761   1.8692
     1.9356   2.6046   3.9488   4.7407   4.8246   5.1920   6.1483   6.3634

          k = 0.1250 0.3125 0.0000 (  3663 PWs)   bands (ev):

    -5.7320  -4.3395  -2.3706  -2.1660  -1.0061   0.7403   0.8765   1.1264
     2.2086   2.9016   3.8818   4.0796   4.3984   5.4027   5.4516   5.9658

          k = 0.1250 0.3750 0.0000 (  3651 PWs)   bands (ev):

    -5.3423  -3.9529  -3.0979  -1.7836  -1.7265   0.4158   1.1165   1.2448
     2.5752   3.2614   3.2638   3.3900   4.6942   4.7183   5.3496   5.8050

          k = 0.1250 0.4375 0.0000 (  3663 PWs)   bands (ev):

    -4.8833  -3.7600  -3.4974  -2.3832  -1.3335  -0.2324   1.5564   1.6773
     2.6474   2.7626   3.0061   3.6630   4.1173   4.7518   5.1093   6.1403

          k = 0.1250-0.5000 0.0000 (  3654 PWs)   bands (ev):

    -4.3556  -4.3556  -2.9739  -2.9739  -0.8157  -0.8157   2.0219   2.0219
     2.2377   2.2377   3.4931   3.4931   4.2145   4.2145   5.5953   5.5953

          k = 0.1875 0.1875 0.0000 (  3667 PWs)   bands (ev):

    -6.1227  -4.7271  -2.5494  -0.5637  -0.5637   0.3618   0.7917   0.7917
     2.5382   2.8871   2.8871   4.7762   5.6584   5.6585   6.1035   6.1353

          k = 0.1875 0.2500 0.0000 (  3668 PWs)   bands (ev):

    -5.8739  -4.4803  -2.3053  -1.4091  -0.3384  -0.0325   0.6026   1.0271
     2.0652   2.7685   3.1118   3.9726   4.9163   5.3004   5.8633   6.3413

          k = 0.1875 0.3125 0.0000 (  3663 PWs)   bands (ev):

    -5.5548  -4.1636  -2.1977  -1.9921  -0.8377  -0.0081   0.9105   1.2822
     1.3447   3.0613   3.2189   3.3769   4.2151   4.5530   5.8931   6.5434

          k = 0.1875 0.3750 0.0000 (  3658 PWs)   bands (ev):

    -5.1656  -3.7775  -2.9239  -1.6103  -1.5546   0.3620   0.5855   1.2836
     1.7021   2.5251   3.3550   3.3969   3.8876   3.9151   5.4620   5.9146

          k = 0.1875 0.4375 0.0000 (  3646 PWs)   bands (ev):

    -4.7071  -3.5853  -3.3226  -2.2101  -1.1606  -0.0616   0.8005   1.6887
     1.9259   2.1380   2.7975   3.1897   3.8898   4.2727   4.8972   5.3056

          k = 0.1875-0.5000 0.0000 (  3650 PWs)   bands (ev):

    -4.1800  -4.1800  -2.7998  -2.7998  -0.6440  -0.6440   1.3022   1.3022
     2.2440   2.2440   2.6373   2.6373   4.3606   4.3606   4.7538   4.7538

          k = 0.2500 0.2500 0.0000 (  3659 PWs)   bands (ev):

    -5.6256  -4.2339  -2.0616  -1.1700  -1.1700   0.1930   0.1930   0.8420
     2.2964   2.2964   2.9951   3.1596   4.4954   5.1270   5.1270   6.4852

          k = 0.2500 0.3125 0.0000 (  3666 PWs)   bands (ev):

    -5.3070  -3.9178  -1.9560  -1.7492  -0.8755  -0.5732   0.4977   1.1464
     1.5306   2.4016   2.5888   3.2633   3.7672   4.4092   5.3603   5.7963

          k = 0.2500 0.3750 0.0000 (  3644 PWs)   bands (ev):

    -4.9185  -3.5325  -2.6807  -1.3680  -1.3165  -0.4741   0.8177   0.8761
     1.4875   1.7324   2.9193   3.0006   3.6934   3.7640   5.1232   5.4386

          k = 0.2500 0.4375 0.0000 (  3654 PWs)   bands (ev):

    -4.4608  -3.3410  -3.0784  -1.9683  -0.9194  -0.0345   0.1773   1.0441
     1.3102   1.9724   2.3821   2.9528   3.5359   4.0971   4.5062   5.0681

          k = 0.2500-0.5000 0.0000 (  3666 PWs)   bands (ev):

    -3.9346  -3.9346  -2.5566  -2.5566  -0.4039  -0.4039   0.4734   0.4734
     1.8147   1.8147   2.4602   2.4602   3.9587   3.9587   4.5679   4.5679

          k = 0.3125 0.3125 0.0000 (  3668 PWs)   bands (ev):

    -4.9891  -3.6025  -1.6468  -1.6468  -1.4376  -0.2796  -0.2796   1.4197
     1.6670   1.8303   1.8303   2.9367   3.6271   4.6783   4.6783   5.0617

          k = 0.3125 0.3750 0.0000 (  3658 PWs)   bands (ev):

    -4.6014  -3.2181  -2.3688  -1.2823  -1.0575  -0.9824   0.0946   0.9136
     1.1270   1.8359   2.1904   2.2527   3.9650   4.0190   4.3801   4.9732

          k = 0.3125 0.4375 0.0000 (  3658 PWs)   bands (ev):

    -4.1448  -3.0276  -2.7653  -1.6605  -0.8118  -0.6101   0.2747   0.4819
     0.5384   1.6183   2.2569   2.5877   3.4362   3.7674   4.3700   5.1107

          k = 0.3125-0.5000 0.0000 (  3638 PWs)   bands (ev):

    -3.6197  -3.6197  -2.2449  -2.2449  -0.3022  -0.3022  -0.0958  -0.0958
     1.0454   1.0454   2.6828   2.6828   3.2785   3.2785   4.8043   4.8043

          k = 0.3750 0.3750 0.0000 (  3660 PWs)   bands (ev):

    -4.2150  -2.8350  -1.9894  -1.9894  -0.6790  -0.6192  -0.6192   0.2084
     1.4950   1.4950   1.5524   2.1889   3.7027   4.3039   4.3526   4.3526

          k = 0.3750 0.4375 0.0000 (  3653 PWs)   bands (ev):

    -3.7594  -2.6453  -2.3835  -1.5549  -1.2570  -0.4367  -0.2330  -0.1758
     0.8560   0.9122   1.9234   2.5473   3.1486   3.7557   4.6723   4.7128

          k = 0.3750-0.5000 0.0000 (  3644 PWs)   bands (ev):

    -3.2360  -3.2359  -1.8670  -1.8670  -1.0152  -1.0152   0.2790   0.2790
     0.3357   0.3358   2.3877   2.3877   3.2379   3.2379   4.9137   4.9137

          k = 0.4375 0.4375 0.0000 (  3646 PWs)   bands (ev):

    -3.3055  -2.1961  -2.1961  -1.9359  -1.0833  -0.8238  -0.8238   0.2110
     0.2682   1.2929   1.2929   2.3207   3.1716   4.1559   4.1559   4.8478

          k = 0.4375-0.5000 0.0000 (  3662 PWs)   bands (ev):

    -2.7841  -2.7841  -1.6917  -1.6917  -1.3947  -1.3947  -0.3116  -0.3116
     0.7204   0.7204   1.7893   1.7893   3.6233   3.6233   4.5819   4.5819

          k =-0.5000-0.5000 0.0000 (  3668 PWs)   bands (ev):

    -2.2650  -2.2650  -2.2650  -2.2650  -0.8923  -0.8923  -0.8923  -0.8923
     1.2253   1.2253   1.2253   1.2253   4.0898   4.0898   4.0898   4.0898

     the Fermi energy is     3.9823 ev

!    total energy              =     -99.58417089 Ry
     Harris-Foulkes estimate   =     -99.58417134 Ry
     estimated scf accuracy    <       0.00000071 Ry

     The total energy is the sum of the following terms:

     one-electron contribution =     -29.63049621 Ry
     hartree contribution      =      23.27359122 Ry
     xc contribution           =     -79.83473941 Ry
     ewald contribution        =     -13.39266434 Ry
     smearing contrib. (-TS)   =       0.00013785 Ry

     convergence has been achieved in  10 iterations

     Forces acting on atoms (Ry/au):

     atom    1 type  1   force =     0.00000000    0.00000000   -0.00686781
     atom    2 type  1   force =     0.00000000    0.00000000   -0.00686795
     atom    3 type  1   force =     0.00000000    0.00000000    0.00119605
     atom    4 type  1   force =     0.00000000    0.00000000    0.00119605
     atom    5 type  1   force =     0.00000000    0.00000000   -0.00119561
     atom    6 type  1   force =     0.00000000    0.00000000   -0.00119535
     atom    7 type  1   force =     0.00000000    0.00000000    0.00686732
     atom    8 type  1   force =     0.00000000    0.00000000    0.00686732

     Total force =     0.013942     Total SCF correction =     0.001085


     entering subroutine stress ...

          total   stress  (Ry/bohr**3)                   (kbar)     P=  -18.72
  -0.00021277   0.00000000   0.00000000        -31.30      0.00      0.00
   0.00000000  -0.00021277   0.00000000          0.00    -31.30      0.00
   0.00000000   0.00000000   0.00004374          0.00      0.00      6.43


     BFGS Geometry Optimization

     number of scf cycles    =   1
     number of bfgs steps    =   0

     energy   new            =     -99.5841708863 Ry

     new trust radius        =       0.0068679536 bohr
     new conv_thr            =       0.0000010000 Ry


ATOMIC_POSITIONS (crystal)
Al       0.000000000   0.000000000  -0.000301022
Al       0.500000000   0.500000000  -0.000301028
Al       0.500000000   0.000000000   0.166719090
Al       0.000000000   0.500000000   0.166719090
Al       0.000000000   0.000000000   0.333280929
Al       0.500000000   0.500000000   0.333280940
Al       0.500000000   0.000000000   0.500301000
Al       0.000000000   0.500000000   0.500301000



     Writing output data file Al_100_2_1.save
     NEW-OLD atomic charge density approx. for the potential

     total cpu time spent up to now is      106.7 secs

     per-process dynamical memory:    70.2 Mb

     Self-consistent Calculation

     iteration #  1     ecut=    30.00 Ry     beta=0.30
     Davidson diagonalization with overlap
     ethr =  1.00E-06,  avg # of iterations =  2.0

     Threshold (ethr) on eigenvalues was too large:
     Diagonalizing with lowered threshold

     Davidson diagonalization with overlap
     ethr =  9.76E-08,  avg # of iterations =  1.9

     total cpu time spent up to now is      126.2 secs

     total energy              =     -99.58435907 Ry
     Harris-Foulkes estimate   =     -99.58436062 Ry
     estimated scf accuracy    <       0.00002255 Ry

     iteration #  2     ecut=    30.00 Ry     beta=0.30
     Davidson diagonalization with overlap
     ethr =  9.40E-08,  avg # of iterations =  1.0

     total cpu time spent up to now is      134.0 secs

     total energy              =     -99.58435638 Ry
     Harris-Foulkes estimate   =     -99.58435938 Ry
     estimated scf accuracy    <       0.00001220 Ry

     iteration #  3     ecut=    30.00 Ry     beta=0.30
     Davidson diagonalization with overlap
     ethr =  5.08E-08,  avg # of iterations =  2.0

     total cpu time spent up to now is      144.1 secs

     End of self-consistent calculation

          k = 0.0000 0.0000 0.0000 (  3655 PWs)   bands (ev):

    -6.7581  -5.3535  -3.1804  -0.2652   1.4973   1.4973   1.9363   2.7932
     2.7932   2.8705   2.8705   4.3164   4.3164   4.8254   4.8254   5.9338

          k = 0.0000 0.0625 0.0000 (  3657 PWs)   bands (ev):

    -6.7225  -5.3181  -3.1454  -0.2305   0.9327   1.5303   1.9696   2.2459
     2.8264   2.9307   3.4832   4.2719   4.4096   4.8584   4.8954   5.9644

          k = 0.0000 0.1250 0.0000 (  3663 PWs)   bands (ev):

    -6.6154  -5.2119  -3.0404  -0.1263   0.0330   1.3718   1.6286   2.0694
     2.9247   3.0351   3.4500   4.3349   4.7072   4.9564   5.9059   6.0996

          k = 0.0000 0.1875 0.0000 (  3671 PWs)   bands (ev):

    -6.4371  -5.0350  -2.8654  -0.8640   0.0469   0.4900   1.7924   2.2355
     2.5872   3.0886   3.2037   4.5804   5.1200   5.3630   5.8226   6.2014

          k = 0.0000 0.2500 0.0000 (  3665 PWs)   bands (ev):

    -6.1878  -4.7877  -2.6208  -1.7127  -0.3495   0.2891   1.7623   2.0226
     2.4684   3.3183   3.4317   4.6093   4.8182   5.3482   6.2274   6.3802

          k = 0.0000 0.3125 0.0000 (  3653 PWs)   bands (ev):

    -5.8679  -4.4701  -2.5032  -2.3065  -1.1325   0.5999   0.9906   2.3176
     2.7668   3.6133   3.6181   3.9903   5.0936   5.4716   5.6428   5.9831

          k = 0.0000 0.3750 0.0000 (  3658 PWs)   bands (ev):

    -5.4779  -4.0832  -3.2313  -1.9240  -1.8543   0.2783   0.9775   2.6793
     3.1162   3.1308   3.9746   4.1737   4.7817   5.1275   5.6425   6.0018

          k = 0.0000 0.4375 0.0000 (  3664 PWs)   bands (ev):

    -5.0184  -3.8942  -3.6272  -2.5120  -1.4731  -0.3710   1.4212   2.4976
     3.1065   3.5589   4.1574   4.4014   4.5920   4.5930   5.4503   5.6122

          k = 0.0000-0.5000 0.0000 (  3658 PWs)   bands (ev):

    -4.4902  -4.4902  -3.1032  -3.1032  -0.9550  -0.9550   1.9291   1.9291
     3.5991   3.5991   4.0489   4.0489   4.8932   4.8932   5.0779   5.0779

          k = 0.0625 0.0625 0.0000 (  3665 PWs)   bands (ev):

    -6.6868  -5.2827  -3.1104  -0.1957   0.9653   0.9653   2.0029   2.2880
     2.2880   3.5428   3.5428   4.3408   4.3408   4.9433   4.9433   5.9944

          k = 0.0625 0.1250 0.0000 (  3670 PWs)   bands (ev):

    -6.5797  -5.1765  -3.0054  -0.0917   0.0670   1.0593   1.4167   2.1024
     2.3901   3.4873   3.6513   4.4396   4.5887   5.0752   5.9785   6.0788

          k = 0.0625 0.1875 0.0000 (  3682 PWs)   bands (ev):

    -6.4015  -4.9997  -2.8305  -0.8296   0.0815   0.5212   1.2389   2.2686
     2.5446   2.6345   3.8171   4.5907   5.1578   5.4600   5.8634   6.1664

          k = 0.0625 0.2500 0.0000 (  3675 PWs)   bands (ev):

    -6.1523  -4.7524  -2.5859  -1.6783  -0.3157   0.3236   1.4698   1.7953
     2.5012   2.7910   4.0250   4.5898   4.9375   5.3984   5.6715   6.5055

          k = 0.0625 0.3125 0.0000 (  3649 PWs)   bands (ev):

    -5.8324  -4.4349  -2.4685  -2.2717  -1.0983   0.6342   1.0241   1.7688
     2.7996   3.0889   3.8195   4.4226   4.9415   5.1651   5.6214   6.0594

          k = 0.0625 0.3750 0.0000 (  3647 PWs)   bands (ev):

    -5.4425  -4.0481  -3.1965  -1.8892  -1.8199   0.3125   1.0114   2.1319
     3.1629   3.1680   3.4514   4.2568   4.7590   5.2394   5.5174   5.5713

          k = 0.0625 0.4375 0.0000 (  3655 PWs)   bands (ev):

    -4.9831  -3.8592  -3.5922  -2.4773  -1.4385  -0.3367   1.4545   2.4749
     2.6315   3.5885   3.6323   3.8749   4.6519   4.9508   5.1801   5.9387

          k = 0.0625-0.5000 0.0000 (  3662 PWs)   bands (ev):

    -4.4551  -4.4551  -3.0683  -3.0683  -0.9207  -0.9207   1.9602   1.9602
     3.0731   3.0731   4.0575   4.0575   4.4136   4.4136   5.6601   5.6601

          k = 0.1250 0.1250 0.0000 (  3681 PWs)   bands (ev):

    -6.4728  -5.0704  -2.9004   0.0122   0.1671   0.1671   1.5144   1.5144
     2.2019   3.5856   3.5856   4.7219   4.7219   6.0884   6.0884   6.1002

          k = 0.1250 0.1875 0.0000 (  3682 PWs)   bands (ev):

    -6.2946  -4.8937  -2.7256  -0.7271   0.1852   0.3247   0.6433   1.6815
     2.3680   2.7220   3.7444   4.8760   5.5827   5.6058   5.8713   6.2715

          k = 0.1250 0.2500 0.0000 (  3672 PWs)   bands (ev):

    -6.0456  -4.6465  -2.4812  -1.5752  -0.2166   0.4269   0.5822   1.8738
     1.9403   2.6000   3.9474   4.7389   4.8307   5.1963   6.1594   6.3690

          k = 0.1250 0.3125 0.0000 (  3663 PWs)   bands (ev):

    -5.7261  -4.3294  -2.3646  -2.1675  -0.9959   0.7366   0.8825   1.1252
     2.2191   2.8970   3.8789   4.0857   4.3967   5.4136   5.4573   5.9630

          k = 0.1250 0.3750 0.0000 (  3651 PWs)   bands (ev):

    -5.3364  -3.9428  -3.0919  -1.7851  -1.7164   0.4145   1.1129   1.2509
     2.5858   3.2569   3.2603   3.3961   4.6928   4.7291   5.3459   5.8109

          k = 0.1250 0.4375 0.0000 (  3663 PWs)   bands (ev):

    -4.8773  -3.7541  -3.4874  -2.3731  -1.3349  -0.2338   1.5529   1.6834
     2.6438   2.7685   3.0167   3.6596   4.1271   4.7478   5.1080   6.1390

          k = 0.1250-0.5000 0.0000 (  3654 PWs)   bands (ev):

    -4.3497  -4.3497  -2.9638  -2.9638  -0.8171  -0.8171   2.0211   2.0211
     2.2409   2.2409   3.5032   3.5032   4.2108   4.2108   5.5940   5.5940

          k = 0.1875 0.1875 0.0000 (  3667 PWs)   bands (ev):

    -6.1168  -4.7171  -2.5509  -0.5577  -0.5577   0.3580   0.8022   0.8022
     2.5335   2.8857   2.8857   4.7823   5.6565   5.6565   6.1145   6.1402

          k = 0.1875 0.2500 0.0000 (  3668 PWs)   bands (ev):

    -5.8680  -4.4702  -2.3068  -1.4031  -0.3321  -0.0224   0.5988   1.0376
     2.0639   2.7639   3.1105   3.9787   4.9131   5.3113   5.8607   6.3471

          k = 0.1875 0.3125 0.0000 (  3663 PWs)   bands (ev):

    -5.5489  -4.1536  -2.1917  -1.9936  -0.8274  -0.0021   0.9069   1.2841
     1.3519   3.0568   3.2249   3.3754   4.2119   4.5637   5.8910   6.5419

          k = 0.1875 0.3750 0.0000 (  3658 PWs)   bands (ev):

    -5.1597  -3.7675  -2.9180  -1.6117  -1.5445   0.3681   0.5842   1.2800
     1.7125   2.5310   3.3518   3.3934   3.8973   3.9135   5.4588   5.9134

          k = 0.1875 0.4375 0.0000 (  3646 PWs)   bands (ev):

    -4.7012  -3.5794  -3.3126  -2.2000  -1.1620  -0.0629   0.8066   1.6874
     1.9296   2.1485   2.7939   3.1996   3.8862   4.2714   4.8933   5.3044

          k = 0.1875-0.5000 0.0000 (  3650 PWs)   bands (ev):

    -4.1741  -4.1741  -2.7897  -2.7897  -0.6454  -0.6454   1.3083   1.3083
     2.2403   2.2403   2.6477   2.6477   4.3566   4.3566   4.7526   4.7526

          k = 0.2500 0.2500 0.0000 (  3659 PWs)   bands (ev):

    -5.6196  -4.2238  -2.0631  -1.1640  -1.1640   0.2034   0.2034   0.8383
     2.2951   2.2951   2.9906   3.1656   4.5061   5.1239   5.1239   6.4838

          k = 0.2500 0.3125 0.0000 (  3666 PWs)   bands (ev):

    -5.3011  -3.9078  -1.9501  -1.7507  -0.8692  -0.5632   0.5080   1.1428
     1.5292   2.4075   2.5875   3.2598   3.7769   4.4059   5.3577   5.7951

          k = 0.2500 0.3750 0.0000 (  3644 PWs)   bands (ev):

    -4.9126  -3.5224  -2.6748  -1.3695  -1.3063  -0.4681   0.8179   0.8849
     1.4859   1.7363   2.9178   3.0104   3.6898   3.7608   5.1220   5.4365

          k = 0.2500 0.4375 0.0000 (  3654 PWs)   bands (ev):

    -4.4549  -3.3350  -3.0683  -1.9582  -0.9208  -0.0284   0.1759   1.0502
     1.3206   1.9687   2.3925   2.9495   3.5343   4.0931   4.5050   5.0648

          k = 0.2500-0.5000 0.0000 (  3666 PWs)   bands (ev):

    -3.9287  -3.9287  -2.5465  -2.5465  -0.4053  -0.4053   0.4794   0.4794
     1.8251   1.8251   2.4566   2.4566   3.9574   3.9574   4.5640   4.5640

          k = 0.3125 0.3125 0.0000 (  3668 PWs)   bands (ev):

    -4.9832  -3.5925  -1.6409  -1.6409  -1.4390  -0.2694  -0.2694   1.4181
     1.6709   1.8289   1.8290   2.9464   3.6235   4.6752   4.6752   5.0605

          k = 0.3125 0.3750 0.0000 (  3658 PWs)   bands (ev):

    -4.5955  -3.2080  -2.3628  -1.2760  -1.0589  -0.9725   0.1049   0.9197
     1.1256   1.8321   2.1891   2.2631   3.9609   4.0157   4.3789   4.9706

          k = 0.3125 0.4375 0.0000 (  3658 PWs)   bands (ev):

    -4.1389  -3.0216  -2.7552  -1.6503  -0.8058  -0.6115   0.2808   0.4812
     0.5481   1.6286   2.2532   2.5862   3.4330   3.7661   4.3661   5.1086

          k = 0.3125-0.5000 0.0000 (  3638 PWs)   bands (ev):

    -3.6138  -3.6138  -2.2347  -2.2347  -0.2962  -0.2962  -0.0972  -0.0972
     1.0558   1.0558   2.6795   2.6795   3.2769   3.2769   4.8010   4.8010

          k = 0.3750 0.3750 0.0000 (  3660 PWs)   bands (ev):

    -4.2090  -2.8249  -1.9834  -1.9834  -0.6804  -0.6090  -0.6090   0.2145
     1.4936   1.4936   1.5628   2.1852   3.7015   4.3000   4.3495   4.3495

          k = 0.3750 0.4375 0.0000 (  3653 PWs)   bands (ev):

    -3.7535  -2.6394  -2.3734  -1.5487  -1.2471  -0.4307  -0.2343  -0.1656
     0.8547   0.9225   1.9220   2.5440   3.1470   3.7524   4.6690   4.7102

          k = 0.3750-0.5000 0.0000 (  3644 PWs)   bands (ev):

    -3.2300  -3.2300  -1.8569  -1.8569  -1.0092  -1.0092   0.2778   0.2778
     0.3458   0.3458   2.3862   2.3862   3.2347   3.2347   4.9115   4.9115

          k = 0.4375 0.4375 0.0000 (  3646 PWs)   bands (ev):

    -3.2996  -2.1901  -2.1901  -1.9258  -1.0773  -0.8136  -0.8136   0.2097
     0.2784   1.2915   1.2915   2.3191   3.1684   4.1528   4.1528   4.8456

          k = 0.4375-0.5000 0.0000 (  3662 PWs)   bands (ev):

    -2.7781  -2.7781  -1.6855  -1.6855  -1.3848  -1.3848  -0.3014  -0.3014
     0.7191   0.7191   1.7879   1.7879   3.6200   3.6200   4.5793   4.5793

          k =-0.5000-0.5000 0.0000 (  3668 PWs)   bands (ev):

    -2.2591  -2.2591  -2.2591  -2.2591  -0.8821  -0.8821  -0.8821  -0.8821
     1.2239   1.2239   1.2239   1.2239   4.0867   4.0867   4.0867   4.0867

     the Fermi energy is     3.9832 ev

!    total energy              =     -99.58435784 Ry
     Harris-Foulkes estimate   =     -99.58435804 Ry
     estimated scf accuracy    <       0.00000026 Ry

     The total energy is the sum of the following terms:

     one-electron contribution =     -29.44858207 Ry
     hartree contribution      =      23.18492364 Ry
     xc contribution           =     -79.83126481 Ry
     ewald contribution        =     -13.48957106 Ry
     smearing contrib. (-TS)   =       0.00013646 Ry

     convergence has been achieved in   3 iterations

     Forces acting on atoms (Ry/au):

     atom    1 type  1   force =     0.00000000    0.00000000   -0.00639890
     atom    2 type  1   force =     0.00000000    0.00000000   -0.00639884
     atom    3 type  1   force =     0.00000000    0.00000000    0.00060481
     atom    4 type  1   force =     0.00000000    0.00000000    0.00060481
     atom    5 type  1   force =     0.00000000    0.00000000   -0.00060547
     atom    6 type  1   force =     0.00000000    0.00000000   -0.00060552
     atom    7 type  1   force =     0.00000000    0.00000000    0.00639955
     atom    8 type  1   force =     0.00000000    0.00000000    0.00639955

     Total force =     0.012856     Total SCF correction =     0.000641


     entering subroutine stress ...

          total   stress  (Ry/bohr**3)                   (kbar)     P=  -19.11
  -0.00021454   0.00000000   0.00000000        -31.56      0.00      0.00
   0.00000000  -0.00021454   0.00000000          0.00    -31.56      0.00
   0.00000000   0.00000000   0.00003939          0.00      0.00      5.79


     number of scf cycles    =   2
     number of bfgs steps    =   1

     energy   old            =     -99.5841708863 Ry
     energy   new            =     -99.5843578449 Ry

     CASE: energy  _new < energy  _old


     WARNING: bfgs curvature condition failed, Theta= 0.870
     new trust radius        =       0.0075547489 bohr
     new conv_thr            =       0.0000000187 Ry


ATOMIC_POSITIONS (crystal)
Al       0.000000000   0.000000000  -0.000632135
Al       0.500000000   0.500000000  -0.000632141
Al       0.500000000   0.000000000   0.166757797
Al       0.000000000   0.500000000   0.166757797
Al       0.000000000   0.000000000   0.333242203
Al       0.500000000   0.500000000   0.333242217
Al       0.500000000   0.000000000   0.500632131
Al       0.000000000   0.500000000   0.500632131



     Writing output data file Al_100_2_1.save
     NEW-OLD atomic charge density approx. for the potential

     total cpu time spent up to now is      148.0 secs

     per-process dynamical memory:    70.2 Mb

     Self-consistent Calculation

     iteration #  1     ecut=    30.00 Ry     beta=0.30
     Davidson diagonalization with overlap
     ethr =  1.00E-06,  avg # of iterations =  2.7

     Threshold (ethr) on eigenvalues was too large:
     Diagonalizing with lowered threshold

     Davidson diagonalization with overlap
     ethr =  3.40E-08,  avg # of iterations =  2.6

     total cpu time spent up to now is      168.9 secs

     total energy              =     -99.58454714 Ry
     Harris-Foulkes estimate   =     -99.58454800 Ry
     estimated scf accuracy    <       0.00000724 Ry

     iteration #  2     ecut=    30.00 Ry     beta=0.30
     Davidson diagonalization with overlap
     ethr =  3.02E-08,  avg # of iterations =  1.0

     total cpu time spent up to now is      177.1 secs

     total energy              =     -99.58454537 Ry
     Harris-Foulkes estimate   =     -99.58454724 Ry
     estimated scf accuracy    <       0.00000427 Ry

     iteration #  3     ecut=    30.00 Ry     beta=0.30
     Davidson diagonalization with overlap
     ethr =  1.78E-08,  avg # of iterations =  2.4

     total cpu time spent up to now is      186.2 secs

     total energy              =     -99.58454627 Ry
     Harris-Foulkes estimate   =     -99.58454631 Ry
     estimated scf accuracy    <       0.00000014 Ry

     iteration #  4     ecut=    30.00 Ry     beta=0.30
     Davidson diagonalization with overlap
     ethr =  5.79E-10,  avg # of iterations =  2.5

     total cpu time spent up to now is      196.5 secs

     total energy              =     -99.58454629 Ry
     Harris-Foulkes estimate   =     -99.58454630 Ry
     estimated scf accuracy    <       0.00000003 Ry

     iteration #  5     ecut=    30.00 Ry     beta=0.30
     Davidson diagonalization with overlap
     ethr =  1.44E-10,  avg # of iterations =  2.4

     total cpu time spent up to now is      206.1 secs

     total energy              =     -99.58454630 Ry
     Harris-Foulkes estimate   =     -99.58454630 Ry
     estimated scf accuracy    <       0.00000002 Ry

     iteration #  6     ecut=    30.00 Ry     beta=0.30
     Davidson diagonalization with overlap
     ethr =  7.82E-11,  avg # of iterations =  1.7

     total cpu time spent up to now is      214.2 secs

     End of self-consistent calculation

          k = 0.0000 0.0000 0.0000 (  3655 PWs)   bands (ev):

    -6.7510  -5.3427  -3.1814  -0.2688   1.5048   1.5048   1.9315   2.8054
     2.8054   2.8777   2.8777   4.3265   4.3265   4.8245   4.8245   5.9258

          k = 0.0000 0.0625 0.0000 (  3657 PWs)   bands (ev):

    -6.7154  -5.3073  -3.1464  -0.2341   0.9401   1.5378   1.9648   2.2575
     2.8387   2.9380   3.4907   4.2756   4.4150   4.8575   4.9061   5.9565

          k = 0.0000 0.1250 0.0000 (  3663 PWs)   bands (ev):

    -6.6083  -5.2011  -3.0413  -0.1299   0.0403   1.3832   1.6361   2.0646
     2.9369   3.0423   3.4498   4.3438   4.7150   4.9555   5.9150   6.0993

          k = 0.0000 0.1875 0.0000 (  3671 PWs)   bands (ev):

    -6.4299  -5.0242  -2.8663  -0.8567   0.0433   0.5012   1.7999   2.2307
     2.5867   3.1009   3.2109   4.5900   5.1190   5.3597   5.8300   6.1941

          k = 0.0000 0.2500 0.0000 (  3665 PWs)   bands (ev):

    -6.1807  -4.7769  -2.6217  -1.7055  -0.3384   0.2856   1.7617   2.0302
     2.4637   3.3306   3.4389   4.6057   4.8278   5.3472   6.2351   6.3742

          k = 0.0000 0.3125 0.0000 (  3653 PWs)   bands (ev):

    -5.8608  -4.4593  -2.4960  -2.3074  -1.1214   0.5963   0.9900   2.3251
     2.7621   3.6224   3.6256   3.9896   5.1025   5.4792   5.6418   5.9803

          k = 0.0000 0.3750 0.0000 (  3658 PWs)   bands (ev):

    -5.4707  -4.0724  -3.2241  -1.9248  -1.8434   0.2776   0.9740   2.6869
     3.1136   3.1263   3.9869   4.1799   4.7893   5.1264   5.6494   6.0008

          k = 0.0000 0.4375 0.0000 (  3664 PWs)   bands (ev):

    -5.0112  -3.8870  -3.6164  -2.5011  -1.4739  -0.3718   1.4178   2.4945
     3.1140   3.5544   4.1649   4.4138   4.5889   4.5987   5.4627   5.6192

          k = 0.0000-0.5000 0.0000 (  3658 PWs)   bands (ev):

    -4.4830  -4.4830  -3.0923  -3.0923  -0.9558  -0.9558   1.9258   1.9258
     3.6066   3.6066   4.0445   4.0445   4.9056   4.9056   5.0849   5.0849

          k = 0.0625 0.0625 0.0000 (  3665 PWs)   bands (ev):

    -6.6796  -5.2719  -3.1113  -0.1993   0.9727   0.9727   1.9981   2.2997
     2.2997   3.5501   3.5501   4.3404   4.3404   4.9534   4.9534   5.9865

          k = 0.0625 0.1250 0.0000 (  3670 PWs)   bands (ev):

    -6.5726  -5.1657  -3.0063  -0.0953   0.0743   1.0668   1.4280   2.0977
     2.4018   3.4868   3.6586   4.4389   4.5964   5.0851   5.9890   6.0713

          k = 0.0625 0.1875 0.0000 (  3682 PWs)   bands (ev):

    -6.3943  -4.9889  -2.8314  -0.8224   0.0779   0.5324   1.2464   2.2639
     2.5551   2.6352   3.8245   4.5898   5.1679   5.4566   5.8708   6.1625

          k = 0.0625 0.2500 0.0000 (  3675 PWs)   bands (ev):

    -6.1451  -4.7416  -2.5868  -1.6710  -0.3047   0.3201   1.4772   1.7947
     2.4965   2.8026   4.0322   4.5870   4.9362   5.4085   5.6787   6.4987

          k = 0.0625 0.3125 0.0000 (  3649 PWs)   bands (ev):

    -5.8253  -4.4241  -2.4613  -2.2725  -1.0873   0.6307   1.0235   1.7762
     2.7950   3.1006   3.8177   4.4282   4.9490   5.1644   5.6281   6.0595

          k = 0.0625 0.3750 0.0000 (  3647 PWs)   bands (ev):

    -5.4353  -4.0372  -3.1893  -1.8901  -1.8090   0.3118   1.0079   2.1394
     3.1583   3.1649   3.4632   4.2643   4.7658   5.2360   5.5167   5.5833

          k = 0.0625 0.4375 0.0000 (  3655 PWs)   bands (ev):

    -4.9760  -3.8520  -3.5814  -2.4664  -1.4394  -0.3375   1.4511   2.4763
     2.6342   3.5841   3.6397   3.8864   4.6481   4.9627   5.1871   5.9380

          k = 0.0625-0.5000 0.0000 (  3662 PWs)   bands (ev):

    -4.4479  -4.4479  -3.0575  -3.0575  -0.9214  -0.9214   1.9570   1.9570
     3.0804   3.0804   4.0543   4.0543   4.4243   4.4243   5.6673   5.6673

          k = 0.1250 0.1250 0.0000 (  3681 PWs)   bands (ev):

    -6.4656  -5.0596  -2.9013   0.0086   0.1744   0.1744   1.5258   1.5258
     2.1971   3.5850   3.5850   4.7292   4.7292   6.0960   6.0990   6.0990

          k = 0.1250 0.1875 0.0000 (  3682 PWs)   bands (ev):

    -6.2875  -4.8829  -2.7265  -0.7198   0.1816   0.3322   0.6543   1.6929
     2.3632   2.7213   3.7438   4.8832   5.5796   5.6126   5.8789   6.2814

          k = 0.1250 0.2500 0.0000 (  3672 PWs)   bands (ev):

    -6.0385  -4.6358  -2.4821  -1.5680  -0.2055   0.4233   0.5895   1.8780
     1.9469   2.5953   3.9467   4.7375   4.8381   5.2018   6.1712   6.3747

          k = 0.1250 0.3125 0.0000 (  3663 PWs)   bands (ev):

    -5.7189  -4.3186  -2.3574  -2.1684  -0.9848   0.7331   0.8899   1.1245
     2.2304   2.8924   3.8763   4.0931   4.3956   5.4254   5.4642   5.9603

          k = 0.1250 0.3750 0.0000 (  3651 PWs)   bands (ev):

    -5.3292  -3.9320  -3.0847  -1.7859  -1.7054   0.4138   1.1095   1.2583
     2.5972   3.2524   3.2571   3.4034   4.6921   4.7408   5.3422   5.8180

          k = 0.1250 0.4375 0.0000 (  3663 PWs)   bands (ev):

    -4.8702  -3.7469  -3.4765  -2.3622  -1.3357  -0.2346   1.5496   1.6909
     2.6404   2.7757   3.0281   3.6562   4.1376   4.7439   5.1074   6.1384

          k = 0.1250-0.5000 0.0000 (  3654 PWs)   bands (ev):

    -4.3425  -4.3425  -2.9529  -2.9529  -0.8179  -0.8179   2.0205   2.0205
     2.2454   2.2454   3.5142   3.5142   4.2071   4.2071   5.5933   5.5933

          k = 0.1875 0.1875 0.0000 (  3667 PWs)   bands (ev):

    -6.1096  -4.7063  -2.5518  -0.5504  -0.5504   0.3545   0.8134   0.8134
     2.5288   2.8851   2.8851   4.7897   5.6548   5.6549   6.1263   6.1462

          k = 0.1875 0.2500 0.0000 (  3668 PWs)   bands (ev):

    -5.8609  -4.4594  -2.3076  -1.3959  -0.3246  -0.0116   0.5953   1.0489
     2.0631   2.7593   3.1098   3.9860   4.9103   5.3230   5.8584   6.3542

          k = 0.1875 0.3125 0.0000 (  3663 PWs)   bands (ev):

    -5.5417  -4.1428  -2.1845  -1.9945  -0.8164   0.0052   0.9034   1.2858
     1.3608   3.0523   3.2322   3.3746   4.2089   4.5753   5.8892   6.5410

          k = 0.1875 0.3750 0.0000 (  3658 PWs)   bands (ev):

    -5.1525  -3.7566  -2.9108  -1.6126  -1.5335   0.3754   0.5835   1.2767
     1.7237   2.5381   3.3490   3.3900   3.9078   3.9124   5.4557   5.9129

          k = 0.1875 0.4375 0.0000 (  3646 PWs)   bands (ev):

    -4.6940  -3.5722  -3.3017  -2.1891  -1.1628  -0.0637   0.8139   1.6864
     1.9345   2.1597   2.7906   3.2102   3.8826   4.2708   4.8896   5.3038

          k = 0.1875-0.5000 0.0000 (  3650 PWs)   bands (ev):

    -4.1669  -4.1669  -2.7789  -2.7789  -0.6461  -0.6461   1.3157   1.3157
     2.2368   2.2368   2.6590   2.6590   4.3525   4.3525   4.7520   4.7520

          k = 0.2500 0.2500 0.0000 (  3659 PWs)   bands (ev):

    -5.6125  -4.2130  -2.0639  -1.1567  -1.1567   0.2145   0.2145   0.8348
     2.2944   2.2944   2.9861   3.1729   4.5176   5.1211   5.1211   6.4829

          k = 0.2500 0.3125 0.0000 (  3666 PWs)   bands (ev):

    -5.2939  -3.8970  -1.9428  -1.7515  -0.8617  -0.5525   0.5192   1.1395
     1.5285   2.4147   2.5868   3.2563   3.7874   4.4029   5.3554   5.7947

          k = 0.2500 0.3750 0.0000 (  3644 PWs)   bands (ev):

    -4.9054  -3.5116  -2.6676  -1.3703  -1.2953  -0.4608   0.8183   0.8949
     1.4847   1.7414   2.9169   3.0210   3.6863   3.7577   5.1215   5.4346

          k = 0.2500 0.4375 0.0000 (  3654 PWs)   bands (ev):

    -4.4477  -3.3278  -3.0575  -1.9473  -0.9216  -0.0211   0.1752   1.0576
     1.3317   1.9652   2.4037   2.9466   3.5332   4.0890   4.5044   5.0617

          k = 0.2500-0.5000 0.0000 (  3666 PWs)   bands (ev):

    -3.9215  -3.9215  -2.5356  -2.5356  -0.4061  -0.4061   0.4868   0.4868
     1.8363   1.8363   2.4531   2.4531   3.9568   3.9568   4.5602   4.5602

          k = 0.3125 0.3125 0.0000 (  3668 PWs)   bands (ev):

    -4.9760  -3.5816  -1.6336  -1.6336  -1.4398  -0.2583  -0.2583   1.4168
     1.6760   1.8282   1.8282   2.9569   3.6199   4.6723   4.6723   5.0600

          k = 0.3125 0.3750 0.0000 (  3658 PWs)   bands (ev):

    -4.5884  -3.1972  -2.3556  -1.2685  -1.0597  -0.9617   0.1160   0.9271
     1.1248   1.8286   2.1883   2.2742   3.9569   4.0126   4.3783   4.9682

          k = 0.3125 0.4375 0.0000 (  3658 PWs)   bands (ev):

    -4.1317  -3.0144  -2.7443  -1.6394  -0.7986  -0.6123   0.2881   0.4809
     0.5588   1.6398   2.2498   2.5853   3.4299   3.7655   4.3622   5.1067

          k = 0.3125-0.5000 0.0000 (  3638 PWs)   bands (ev):

    -3.6066  -3.6066  -2.2238  -2.2238  -0.2889  -0.2889  -0.0980  -0.0980
     1.0669   1.0669   2.6766   2.6766   3.2758   3.2758   4.7978   4.7978

          k = 0.3750 0.3750 0.0000 (  3660 PWs)   bands (ev):

    -4.2019  -2.8140  -1.9762  -1.9762  -0.6812  -0.5980  -0.5980   0.2218
     1.4929   1.4929   1.5739   2.1818   3.7008   4.2961   4.3466   4.3466

          k = 0.3750 0.4375 0.0000 (  3653 PWs)   bands (ev):

    -3.7463  -2.6322  -2.3625  -1.5412  -1.2364  -0.4234  -0.2351  -0.1545
     0.8539   0.9336   1.9213   2.5410   3.1459   3.7493   4.6657   4.7078

          k = 0.3750-0.5000 0.0000 (  3644 PWs)   bands (ev):

    -3.2228  -3.2228  -1.8460  -1.8460  -1.0020  -1.0020   0.2771   0.2771
     0.3568   0.3568   2.3852   2.3852   3.2316   3.2316   4.9096   4.9096

          k = 0.4375 0.4375 0.0000 (  3646 PWs)   bands (ev):

    -3.2924  -2.1829  -2.1829  -1.9149  -1.0700  -0.8026  -0.8026   0.2090
     0.2895   1.2908   1.2908   2.3182   3.1653   4.1499   4.1499   4.8437

          k = 0.4375-0.5000 0.0000 (  3662 PWs)   bands (ev):

    -2.7709  -2.7709  -1.6780  -1.6780  -1.3741  -1.3741  -0.2903  -0.2903
     0.7183   0.7183   1.7872   1.7872   3.6169   3.6169   4.5769   4.5769

          k =-0.5000-0.5000 0.0000 (  3668 PWs)   bands (ev):

    -2.2518  -2.2518  -2.2518  -2.2518  -0.8712  -0.8712  -0.8712  -0.8712
     1.2232   1.2232   1.2232   1.2232   4.0838   4.0838   4.0838   4.0838

     the Fermi energy is     3.9848 ev

!    total energy              =     -99.58454630 Ry
     Harris-Foulkes estimate   =     -99.58454630 Ry
     estimated scf accuracy    <          4.4E-09 Ry

     The total energy is the sum of the following terms:

     one-electron contribution =     -29.24471098 Ry
     hartree contribution      =      23.08549587 Ry
     xc contribution           =     -79.82729608 Ry
     ewald contribution        =     -13.59817058 Ry
     smearing contrib. (-TS)   =       0.00013548 Ry

     convergence has been achieved in   6 iterations

     Forces acting on atoms (Ry/au):

     atom    1 type  1   force =     0.00000000    0.00000000   -0.00595797
     atom    2 type  1   force =     0.00000000    0.00000000   -0.00595796
     atom    3 type  1   force =     0.00000000    0.00000000    0.00011798
     atom    4 type  1   force =     0.00000000    0.00000000    0.00011798
     atom    5 type  1   force =     0.00000000    0.00000000   -0.00011808
     atom    6 type  1   force =     0.00000000    0.00000000   -0.00011810
     atom    7 type  1   force =     0.00000000    0.00000000    0.00595808
     atom    8 type  1   force =     0.00000000    0.00000000    0.00595808

     Total force =     0.011918     Total SCF correction =     0.000068


     entering subroutine stress ...

          total   stress  (Ry/bohr**3)                   (kbar)     P=  -19.58
  -0.00021667   0.00000000   0.00000000        -31.87      0.00      0.00
   0.00000000  -0.00021667   0.00000000          0.00    -31.87      0.00
   0.00000000   0.00000000   0.00003410          0.00      0.00      5.02


     number of scf cycles    =   3
     number of bfgs steps    =   2

     energy   old            =     -99.5843578449 Ry
     energy   new            =     -99.5845462961 Ry

     CASE: energy  _new < energy  _old

     new trust radius        =       0.0113321234 bohr
     new conv_thr            =       0.0000000188 Ry


ATOMIC_POSITIONS (crystal)
Al       0.000000000   0.000000000  -0.001128828
Al       0.500000000   0.500000000  -0.001128837
Al       0.500000000   0.000000000   0.166787137
Al       0.000000000   0.500000000   0.166787137
Al       0.000000000   0.000000000   0.333212873
Al       0.500000000   0.500000000   0.333212890
Al       0.500000000   0.000000000   0.501128814
Al       0.000000000   0.500000000   0.501128814



     Writing output data file Al_100_2_1.save
     NEW-OLD atomic charge density approx. for the potential

     total cpu time spent up to now is      218.1 secs

     per-process dynamical memory:    70.2 Mb

     Self-consistent Calculation

     iteration #  1     ecut=    30.00 Ry     beta=0.30
     Davidson diagonalization with overlap
     ethr =  1.00E-06,  avg # of iterations =  3.2

     total cpu time spent up to now is      230.5 secs

     total energy              =     -99.58480315 Ry
     Harris-Foulkes estimate   =     -99.58480541 Ry
     estimated scf accuracy    <       0.00002827 Ry

     iteration #  2     ecut=    30.00 Ry     beta=0.30
     Davidson diagonalization with overlap
     ethr =  1.18E-07,  avg # of iterations =  1.2

     total cpu time spent up to now is      239.0 secs

     total energy              =     -99.58479774 Ry
     Harris-Foulkes estimate   =     -99.58480386 Ry
     estimated scf accuracy    <       0.00001804 Ry

     iteration #  3     ecut=    30.00 Ry     beta=0.30
     Davidson diagonalization with overlap
     ethr =  7.52E-08,  avg # of iterations =  2.0

     total cpu time spent up to now is      248.5 secs

     total energy              =     -99.58480135 Ry
     Harris-Foulkes estimate   =     -99.58480183 Ry
     estimated scf accuracy    <       0.00000319 Ry

     iteration #  4     ecut=    30.00 Ry     beta=0.30
     Davidson diagonalization with overlap
     ethr =  1.33E-08,  avg # of iterations =  1.1

     total cpu time spent up to now is      256.4 secs

     total energy              =     -99.58480142 Ry
     Harris-Foulkes estimate   =     -99.58480150 Ry
     estimated scf accuracy    <       0.00000094 Ry

     iteration #  5     ecut=    30.00 Ry     beta=0.30
     Davidson diagonalization with overlap
     ethr =  3.90E-09,  avg # of iterations =  1.0

     total cpu time spent up to now is      264.1 secs

     total energy              =     -99.58480138 Ry
     Harris-Foulkes estimate   =     -99.58480146 Ry
     estimated scf accuracy    <       0.00000028 Ry

     iteration #  6     ecut=    30.00 Ry     beta=0.30
     Davidson diagonalization with overlap
     ethr =  1.15E-09,  avg # of iterations =  3.0

     total cpu time spent up to now is      274.1 secs

     total energy              =     -99.58480148 Ry
     Harris-Foulkes estimate   =     -99.58480148 Ry
     estimated scf accuracy    <       0.00000025 Ry

     iteration #  7     ecut=    30.00 Ry     beta=0.30
     Davidson diagonalization with overlap
     ethr =  1.05E-09,  avg # of iterations =  1.0

     total cpu time spent up to now is      281.9 secs

     total energy              =     -99.58480146 Ry
     Harris-Foulkes estimate   =     -99.58480148 Ry
     estimated scf accuracy    <       0.00000022 Ry

     iteration #  8     ecut=    30.00 Ry     beta=0.30
     Davidson diagonalization with overlap
     ethr =  9.21E-10,  avg # of iterations =  1.0

     total cpu time spent up to now is      290.7 secs

     total energy              =     -99.58480146 Ry
     Harris-Foulkes estimate   =     -99.58480146 Ry
     estimated scf accuracy    <       0.00000006 Ry

     iteration #  9     ecut=    30.00 Ry     beta=0.30
     Davidson diagonalization with overlap
     ethr =  2.63E-10,  avg # of iterations =  1.0

     total cpu time spent up to now is      299.1 secs

     total energy              =     -99.58480146 Ry
     Harris-Foulkes estimate   =     -99.58480146 Ry
     estimated scf accuracy    <       0.00000003 Ry

     iteration # 10     ecut=    30.00 Ry     beta=0.30
     Davidson diagonalization with overlap
     ethr =  1.44E-10,  avg # of iterations =  1.0

     total cpu time spent up to now is      307.2 secs

     total energy              =     -99.58480146 Ry
     Harris-Foulkes estimate   =     -99.58480146 Ry
     estimated scf accuracy    <       0.00000003 Ry

     iteration # 11     ecut=    30.00 Ry     beta=0.30
     Davidson diagonalization with overlap
     ethr =  1.07E-10,  avg # of iterations =  1.0

     total cpu time spent up to now is      315.1 secs

     End of self-consistent calculation

          k = 0.0000 0.0000 0.0000 (  3655 PWs)   bands (ev):

    -6.7397  -5.3277  -3.1829  -0.2748   1.5167   1.5167   1.9239   2.8225
     2.8225   2.8892   2.8892   4.3407   4.3407   4.8232   4.8232   5.9133

          k = 0.0000 0.0625 0.0000 (  3657 PWs)   bands (ev):

    -6.7040  -5.2923  -3.1478  -0.2401   0.9518   1.5497   1.9571   2.2738
     2.8557   2.9495   3.5025   4.2801   4.4230   4.8562   4.9211   5.9441

          k = 0.0000 0.1250 0.0000 (  3663 PWs)   bands (ev):

    -6.5969  -5.1861  -3.0427  -0.1359   0.0519   1.3991   1.6480   2.0570
     2.9540   3.0537   3.4494   4.3568   4.7268   4.9541   5.9271   6.0986

          k = 0.0000 0.1875 0.0000 (  3671 PWs)   bands (ev):

    -6.4186  -5.0092  -2.8678  -0.8452   0.0374   0.5169   1.8118   2.2231
     2.5859   3.1180   3.2224   4.6036   5.1177   5.3541   5.8415   6.1826

          k = 0.0000 0.2500 0.0000 (  3665 PWs)   bands (ev):

    -6.1693  -4.7618  -2.6232  -1.6941  -0.3229   0.2796   1.7607   2.0420
     2.4562   3.3477   3.4504   4.5998   4.8413   5.3459   6.2471   6.3647

          k = 0.0000 0.3125 0.0000 (  3653 PWs)   bands (ev):

    -5.8495  -4.4442  -2.4846  -2.3088  -1.1061   0.5905   0.9889   2.3370
     2.7547   3.6289   3.6427   3.9886   5.1148   5.4912   5.6404   5.9756

          k = 0.0000 0.3750 0.0000 (  3658 PWs)   bands (ev):

    -5.4594  -4.0573  -3.2127  -1.9262  -1.8281   0.2764   0.9682   2.6988
     3.1092   3.1189   4.0041   4.1897   4.8013   5.1239   5.6592   5.9994

          k = 0.0000 0.4375 0.0000 (  3664 PWs)   bands (ev):

    -4.9999  -3.8756  -3.6013  -2.4859  -1.4752  -0.3730   1.4121   2.4892
     3.1259   3.5473   4.1769   4.4310   4.5824   4.6094   5.4800   5.6302

          k = 0.0000-0.5000 0.0000 (  3658 PWs)   bands (ev):

    -4.4717  -4.4717  -3.0771  -3.0771  -0.9571  -0.9571   1.9203   1.9203
     3.6186   3.6186   4.0375   4.0375   4.9229   4.9229   5.0958   5.0958

          k = 0.0625 0.0625 0.0000 (  3665 PWs)   bands (ev):

    -6.6683  -5.2569  -3.1128  -0.2054   0.9844   0.9844   1.9904   2.3160
     2.3160   3.5618   3.5618   4.3396   4.3396   4.9676   4.9676   5.9742

          k = 0.0625 0.1250 0.0000 (  3670 PWs)   bands (ev):

    -6.5613  -5.1507  -3.0078  -0.1013   0.0858   1.0786   1.4438   2.0900
     2.4182   3.4860   3.6702   4.4378   4.6084   5.0989   6.0036   6.0596

          k = 0.0625 0.1875 0.0000 (  3682 PWs)   bands (ev):

    -6.3830  -4.9738  -2.8329  -0.8109   0.0720   0.5481   1.2581   2.2563
     2.5691   2.6366   3.8361   4.5885   5.1823   5.4510   5.8823   6.1555

          k = 0.0625 0.2500 0.0000 (  3675 PWs)   bands (ev):

    -6.1338  -4.7265  -2.5882  -1.6596  -0.2892   0.3141   1.4889   1.7938
     2.4890   2.8189   4.0434   4.5825   4.9340   5.4226   5.6899   6.4880

          k = 0.0625 0.3125 0.0000 (  3649 PWs)   bands (ev):

    -5.8140  -4.4090  -2.4499  -2.2739  -1.0719   0.6248   1.0224   1.7880
     2.7876   3.1170   3.8145   4.4371   4.9608   5.1632   5.6369   6.0594

          k = 0.0625 0.3750 0.0000 (  3647 PWs)   bands (ev):

    -5.4240  -4.0221  -3.1779  -1.8915  -1.7937   0.3106   1.0021   2.1512
     3.1510   3.1597   3.4795   4.2761   4.7766   5.2305   5.5155   5.6001

          k = 0.0625 0.4375 0.0000 (  3655 PWs)   bands (ev):

    -4.9646  -3.8406  -3.5663  -2.4512  -1.4407  -0.3387   1.4454   2.4776
     2.6392   3.5770   3.6514   3.9024   4.6420   4.9793   5.1982   5.9369

          k = 0.0625-0.5000 0.0000 (  3662 PWs)   bands (ev):

    -4.4365  -4.4365  -3.0423  -3.0423  -0.9227  -0.9227   1.9516   1.9516
     3.0919   3.0919   4.0489   4.0489   4.4393   4.4393   5.6785   5.6785

          k = 0.1250 0.1250 0.0000 (  3681 PWs)   bands (ev):

    -6.4543  -5.0446  -2.9028   0.0027   0.1860   0.1860   1.5417   1.5417
     2.1895   3.5840   3.5840   4.7409   4.7409   6.0890   6.1137   6.1137

          k = 0.1250 0.1875 0.0000 (  3682 PWs)   bands (ev):

    -6.2762  -4.8678  -2.7280  -0.7083   0.1757   0.3440   0.6697   1.7089
     2.3557   2.7202   3.7428   4.8946   5.5742   5.6233   5.8908   6.2951

          k = 0.1250 0.2500 0.0000 (  3672 PWs)   bands (ev):

    -6.0272  -4.6207  -2.4835  -1.5565  -0.1900   0.4174   0.6011   1.8822
     1.9575   2.5878   3.9455   4.7349   4.8497   5.2104   6.1878   6.3811

          k = 0.1250 0.3125 0.0000 (  3663 PWs)   bands (ev):

    -5.7076  -4.3035  -2.3460  -2.1698  -0.9695   0.7272   0.9015   1.1235
     2.2462   2.8851   3.8720   4.1048   4.3937   5.4418   5.4752   5.9557

          k = 0.1250 0.3750 0.0000 (  3651 PWs)   bands (ev):

    -5.3179  -3.9169  -3.0733  -1.7873  -1.6901   0.4127   1.1037   1.2700
     2.6131   3.2453   3.2516   3.4150   4.6909   4.7570   5.3362   5.8293

          k = 0.1250 0.4375 0.0000 (  3663 PWs)   bands (ev):

    -4.8588  -3.7356  -3.4614  -2.3470  -1.3371  -0.2358   1.5441   1.7026
     2.6347   2.7871   3.0439   3.6505   4.1524   4.7375   5.1063   6.1374

          k = 0.1250-0.5000 0.0000 (  3654 PWs)   bands (ev):

    -4.3311  -4.3311  -2.9378  -2.9378  -0.8192  -0.8192   2.0191   2.0191
     2.2528   2.2528   3.5293   3.5293   4.2012   4.2012   5.5923   5.5923

          k = 0.1875 0.1875 0.0000 (  3667 PWs)   bands (ev):

    -6.0983  -4.6912  -2.5532  -0.5389  -0.5389   0.3486   0.8290   0.8290
     2.5213   2.8840   2.8840   4.8013   5.6518   5.6518   6.1427   6.1557

          k = 0.1875 0.2500 0.0000 (  3668 PWs)   bands (ev):

    -5.8496  -4.4444  -2.3090  -1.3844  -0.3128   0.0037   0.5895   1.0646
     2.0619   2.7519   3.1087   3.9977   4.9053   5.3393   5.8543   6.3653

          k = 0.1875 0.3125 0.0000 (  3663 PWs)   bands (ev):

    -5.5304  -4.1277  -2.1731  -1.9959  -0.8010   0.0168   0.8977   1.2871
     1.3740   3.0451   3.2438   3.3732   4.2038   4.5913   5.8857   6.5394

          k = 0.1875 0.3750 0.0000 (  3658 PWs)   bands (ev):

    -5.1412  -3.7415  -2.8994  -1.6139  -1.5182   0.3869   0.5824   1.2712
     1.7393   2.5494   3.3443   3.3842   3.9105   3.9224   5.4504   5.9120

          k = 0.1875 0.4375 0.0000 (  3646 PWs)   bands (ev):

    -4.6826  -3.5608  -3.2866  -2.1738  -1.1641  -0.0649   0.8255   1.6842
     1.9425   2.1754   2.7849   3.2250   3.8768   4.2697   4.8834   5.3029

          k = 0.1875-0.5000 0.0000 (  3650 PWs)   bands (ev):

    -4.1556  -4.1556  -2.7637  -2.7637  -0.6474  -0.6474   1.3274   1.3274
     2.2310   2.2310   2.6746   2.6746   4.3460   4.3460   4.7510   4.7510

          k = 0.2500 0.2500 0.0000 (  3659 PWs)   bands (ev):

    -5.6012  -4.1979  -2.0653  -1.1452  -1.1452   0.2300   0.2300   0.8290
     2.2933   2.2933   2.9789   3.1844   4.5337   5.1162   5.1162   6.4813

          k = 0.2500 0.3125 0.0000 (  3666 PWs)   bands (ev):

    -5.2826  -3.8819  -1.9314  -1.7529  -0.8499  -0.5374   0.5348   1.1339
     1.5273   2.4260   2.5856   3.2505   3.8020   4.3976   5.3511   5.7938

          k = 0.2500 0.3750 0.0000 (  3644 PWs)   bands (ev):

    -4.8941  -3.4964  -2.6562  -1.3716  -1.2800  -0.4493   0.8182   0.9094
     1.4821   1.7496   2.9155   3.0356   3.6805   3.7526   5.1206   5.4310

          k = 0.2500 0.4375 0.0000 (  3654 PWs)   bands (ev):

    -4.4364  -3.3165  -3.0423  -1.9320  -0.9230  -0.0096   0.1740   1.0692
     1.3473   1.9593   2.4192   2.9418   3.5313   4.0825   4.5034   5.0563

          k = 0.2500-0.5000 0.0000 (  3666 PWs)   bands (ev):

    -3.9102  -3.9102  -2.5204  -2.5204  -0.4073  -0.4073   0.4983   0.4983
     1.8519   1.8519   2.4474   2.4474   3.9557   3.9557   4.5539   4.5539

          k = 0.3125 0.3125 0.0000 (  3668 PWs)   bands (ev):

    -4.9647  -3.5665  -1.6221  -1.6221  -1.4412  -0.2429  -0.2429   1.4142
     1.6844   1.8271   1.8271   2.9715   3.6142   4.6673   4.6673   5.0591

          k = 0.3125 0.3750 0.0000 (  3658 PWs)   bands (ev):

    -4.5770  -3.1820  -2.3442  -1.2567  -1.0610  -0.9467   0.1314   0.9388
     1.1236   1.8226   2.1872   2.2897   3.9503   4.0074   4.3774   4.9639

          k = 0.3125 0.4375 0.0000 (  3658 PWs)   bands (ev):

    -4.1203  -3.0030  -2.7291  -1.6241  -0.7871  -0.6136   0.2997   0.4800
     0.5739   1.6553   2.2441   2.5838   3.4248   3.7644   4.3559   5.1031

          k = 0.3125-0.5000 0.0000 (  3638 PWs)   bands (ev):

    -3.5952  -3.5952  -2.2086  -2.2086  -0.2774  -0.2774  -0.0992  -0.0992
     1.0824   1.0824   2.6717   2.6717   3.2740   3.2740   4.7924   4.7924

          k = 0.3750 0.3750 0.0000 (  3660 PWs)   bands (ev):

    -4.1905  -2.7988  -1.9647  -1.9647  -0.6825  -0.5826  -0.5826   0.2334
     1.4917   1.4917   1.5894   2.1760   3.6998   4.2898   4.3416   4.3416

          k = 0.3750 0.4375 0.0000 (  3653 PWs)   bands (ev):

    -3.7349  -2.6207  -2.3473  -1.5294  -1.2214  -0.4119  -0.2364  -0.1391
     0.8527   0.9491   1.9201   2.5361   3.1440   3.7439   4.6603   4.7035

          k = 0.3750-0.5000 0.0000 (  3644 PWs)   bands (ev):

    -3.2114  -3.2114  -1.8307  -1.8307  -0.9905  -0.9905   0.2759   0.2759
     0.3722   0.3722   2.3837   2.3837   3.2264   3.2264   4.9059   4.9059

          k = 0.4375 0.4375 0.0000 (  3646 PWs)   bands (ev):

    -3.2810  -2.1714  -2.1714  -1.8996  -1.0586  -0.7873  -0.7873   0.2077
     0.3050   1.2896   1.2896   2.3167   3.1602   4.1449   4.1449   4.8400

          k = 0.4375-0.5000 0.0000 (  3662 PWs)   bands (ev):

    -2.7595  -2.7595  -1.6662  -1.6662  -1.3591  -1.3591  -0.2750  -0.2750
     0.7171   0.7171   1.7860   1.7860   3.6116   3.6116   4.5726   4.5726

          k =-0.5000-0.5000 0.0000 (  3668 PWs)   bands (ev):

    -2.2404  -2.2404  -2.2404  -2.2404  -0.8559  -0.8559  -0.8559  -0.8559
     1.2220   1.2220   1.2220   1.2220   4.0787   4.0787   4.0787   4.0787

     the Fermi energy is     3.9868 ev

!    total energy              =     -99.58480145 Ry
     Harris-Foulkes estimate   =     -99.58480146 Ry
     estimated scf accuracy    <          4.8E-09 Ry

     The total energy is the sum of the following terms:

     one-electron contribution =     -28.92838620 Ry
     hartree contribution      =      22.92876105 Ry
     xc contribution           =     -79.82132564 Ry
     ewald contribution        =     -13.76398559 Ry
     smearing contrib. (-TS)   =       0.00013493 Ry

     convergence has been achieved in  11 iterations

     Forces acting on atoms (Ry/au):

     atom    1 type  1   force =     0.00000000    0.00000000   -0.00532677
     atom    2 type  1   force =     0.00000000    0.00000000   -0.00532676
     atom    3 type  1   force =     0.00000000    0.00000000   -0.00054301
     atom    4 type  1   force =     0.00000000    0.00000000   -0.00054301
     atom    5 type  1   force =     0.00000000    0.00000000    0.00054298
     atom    6 type  1   force =     0.00000000    0.00000000    0.00054294
     atom    7 type  1   force =     0.00000000    0.00000000    0.00532681
     atom    8 type  1   force =     0.00000000    0.00000000    0.00532681

     Total force =     0.010709     Total SCF correction =     0.000110


     entering subroutine stress ...

          total   stress  (Ry/bohr**3)                   (kbar)     P=  -20.27
  -0.00021981   0.00000000   0.00000000        -32.34      0.00      0.00
   0.00000000  -0.00021981   0.00000000          0.00    -32.34      0.00
   0.00000000   0.00000000   0.00002621          0.00      0.00      3.86


     number of scf cycles    =   4
     number of bfgs steps    =   3

     energy   old            =     -99.5845462961 Ry
     energy   new            =     -99.5848014520 Ry

     CASE: energy  _new < energy  _old

     new trust radius        =       0.0169981850 bohr
     new conv_thr            =       0.0000000255 Ry


ATOMIC_POSITIONS (crystal)
Al       0.000000000   0.000000000  -0.001873868
Al       0.500000000   0.500000000  -0.001873881
Al       0.500000000   0.000000000   0.166789668
Al       0.000000000   0.500000000   0.166789668
Al       0.000000000   0.000000000   0.333210361
Al       0.500000000   0.500000000   0.333210386
Al       0.500000000   0.000000000   0.501873833
Al       0.000000000   0.500000000   0.501873833



     Writing output data file Al_100_2_1.save
     NEW-OLD atomic charge density approx. for the potential

     total cpu time spent up to now is      319.0 secs

     per-process dynamical memory:    70.2 Mb

     Self-consistent Calculation

     iteration #  1     ecut=    30.00 Ry     beta=0.30
     Davidson diagonalization with overlap
     ethr =  1.00E-06,  avg # of iterations =  3.1

     total cpu time spent up to now is      332.9 secs

     total energy              =     -99.58513610 Ry
     Harris-Foulkes estimate   =     -99.58514032 Ry
     estimated scf accuracy    <       0.00005374 Ry

     iteration #  2     ecut=    30.00 Ry     beta=0.30
     Davidson diagonalization with overlap
     ethr =  2.24E-07,  avg # of iterations =  1.0

     total cpu time spent up to now is      340.8 secs

     total energy              =     -99.58512585 Ry
     Harris-Foulkes estimate   =     -99.58513712 Ry
     estimated scf accuracy    <       0.00003435 Ry

     iteration #  3     ecut=    30.00 Ry     beta=0.30
     Davidson diagonalization with overlap
     ethr =  1.43E-07,  avg # of iterations =  2.0

     total cpu time spent up to now is      350.4 secs

     total energy              =     -99.58513249 Ry
     Harris-Foulkes estimate   =     -99.58513353 Ry
     estimated scf accuracy    <       0.00000615 Ry

     iteration #  4     ecut=    30.00 Ry     beta=0.30
     Davidson diagonalization with overlap
     ethr =  2.56E-08,  avg # of iterations =  1.3

     total cpu time spent up to now is      358.7 secs

     total energy              =     -99.58513263 Ry
     Harris-Foulkes estimate   =     -99.58513283 Ry
     estimated scf accuracy    <       0.00000129 Ry

     iteration #  5     ecut=    30.00 Ry     beta=0.30
     Davidson diagonalization with overlap
     ethr =  5.39E-09,  avg # of iterations =  2.4

     total cpu time spent up to now is      368.0 secs

     End of self-consistent calculation

          k = 0.0000 0.0000 0.0000 (  3655 PWs)   bands (ev):

    -6.7221  -5.3064  -3.1844  -0.2837   1.5351   1.5351   1.9126   2.8466
     2.8466   2.9071   2.9071   4.3607   4.3607   4.8221   4.8221   5.8944

          k = 0.0000 0.0625 0.0000 (  3657 PWs)   bands (ev):

    -6.6865  -5.2710  -3.1494  -0.2490   0.9699   1.5681   1.9458   2.2970
     2.8798   2.9672   3.5209   4.2859   4.4357   4.8551   4.9424   5.9253

          k = 0.0000 0.1250 0.0000 (  3663 PWs)   bands (ev):

    -6.5794  -5.1647  -3.0443  -0.1448   0.0698   1.4216   1.6664   2.0457
     2.9781   3.0713   3.4494   4.3760   4.7444   4.9531   5.9431   6.0985

          k = 0.0000 0.1875 0.0000 (  3671 PWs)   bands (ev):

    -6.4010  -4.9878  -2.8693  -0.8274   0.0285   0.5390   1.8302   2.2120
     2.5854   3.1421   3.2401   4.6230   5.1166   5.3458   5.8593   6.1652

          k = 0.0000 0.2500 0.0000 (  3665 PWs)   bands (ev):

    -6.1518  -4.7405  -2.6246  -1.6763  -0.3010   0.2708   1.7600   2.0605
     2.4451   3.3718   3.4683   4.5910   4.8605   5.3448   6.2658   6.3503

          k = 0.0000 0.3125 0.0000 (  3653 PWs)   bands (ev):

    -5.8319  -4.4228  -2.4669  -2.3102  -1.0843   0.5818   0.9880   2.3555
     2.7438   3.6385   3.6669   3.9879   5.1323   5.5099   5.6393   5.9688

          k = 0.0000 0.3750 0.0000 (  3658 PWs)   bands (ev):

    -5.4418  -4.0359  -3.1950  -1.9276  -1.8064   0.2754   0.9596   2.7173
     3.1027   3.1081   4.0283   4.2051   4.8199   5.1199   5.6735   5.9982

          k = 0.0000 0.4375 0.0000 (  3664 PWs)   bands (ev):

    -4.9823  -3.8580  -3.5798  -2.4643  -1.4765  -0.3742   1.4037   2.4814
     3.1444   3.5367   4.1955   4.4553   4.5729   4.6261   5.5045   5.6473

          k = 0.0000-0.5000 0.0000 (  3658 PWs)   bands (ev):

    -4.4540  -4.4540  -3.0556  -3.0556  -0.9583  -0.9583   1.9121   1.9121
     3.6371   3.6371   4.0273   4.0273   4.9473   4.9473   5.1129   5.1129

          k = 0.0625 0.0625 0.0000 (  3665 PWs)   bands (ev):

    -6.6507  -5.2356  -3.1144  -0.2143   1.0025   1.0025   1.9791   2.3392
     2.3392   3.5799   3.5799   4.3393   4.3393   4.9877   4.9877   5.9556

          k = 0.0625 0.1250 0.0000 (  3670 PWs)   bands (ev):

    -6.5437  -5.1294  -3.0093  -0.1102   0.1038   1.0969   1.4661   2.0788
     2.4414   3.4854   3.6882   4.4370   4.6269   5.1186   6.0241   6.0418

          k = 0.0625 0.1875 0.0000 (  3682 PWs)   bands (ev):

    -6.3654  -4.9525  -2.8343  -0.7930   0.0631   0.5703   1.2762   2.2451
     2.5867   2.6414   3.8541   4.5874   5.2029   5.4427   5.9001   6.1449

          k = 0.0625 0.2500 0.0000 (  3675 PWs)   bands (ev):

    -6.1162  -4.7052  -2.5897  -1.6418  -0.2672   0.3054   1.5071   1.7931
     2.4779   2.8419   4.0609   4.5762   4.9313   5.4426   5.7072   6.4719

          k = 0.0625 0.3125 0.0000 (  3649 PWs)   bands (ev):

    -5.7964  -4.3877  -2.4322  -2.2754  -1.0501   0.6161   1.0215   1.8062
     2.7766   3.1401   3.8096   4.4512   4.9791   5.1622   5.6487   6.0594

          k = 0.0625 0.3750 0.0000 (  3647 PWs)   bands (ev):

    -5.4064  -4.0008  -3.1602  -1.8928  -1.7720   0.3096   0.9936   2.1695
     3.1402   3.1520   3.5026   4.2943   4.7933   5.2222   5.5146   5.6237

          k = 0.0625 0.4375 0.0000 (  3655 PWs)   bands (ev):

    -4.9470  -3.8230  -3.5448  -2.4296  -1.4420  -0.3399   1.4370   2.4782
     2.6486   3.5665   3.6696   3.9250   4.6329   5.0027   5.2154   5.9360

          k = 0.0625-0.5000 0.0000 (  3662 PWs)   bands (ev):

    -4.4189  -4.4189  -3.0208  -3.0208  -0.9240  -0.9240   1.9435   1.9435
     3.1098   3.1098   4.0406   4.0406   4.4608   4.4608   5.6959   5.6959

          k = 0.1250 0.1250 0.0000 (  3681 PWs)   bands (ev):

    -6.4367  -5.0232  -2.9043  -0.0062   0.2040   0.2040   1.5642   1.5642
     2.1783   3.5833   3.5833   4.7590   4.7590   6.0782   6.1346   6.1346

          k = 0.1250 0.1875 0.0000 (  3682 PWs)   bands (ev):

    -6.2586  -4.8465  -2.7295  -0.6904   0.1668   0.3623   0.6916   1.7315
     2.3446   2.7193   3.7420   4.9123   5.5662   5.6397   5.9091   6.3146

          k = 0.1250 0.2500 0.0000 (  3672 PWs)   bands (ev):

    -6.0096  -4.5993  -2.4849  -1.5387  -0.1680   0.4087   0.6191   1.8862
     1.9751   2.5768   3.9445   4.7309   4.8679   5.2242   6.2111   6.3889

          k = 0.1250 0.3125 0.0000 (  3663 PWs)   bands (ev):

    -5.6900  -4.2822  -2.3283  -2.1712  -0.9476   0.7186   0.9195   1.1227
     2.2686   2.8742   3.8658   4.1229   4.3914   5.4650   5.4922   5.9489

          k = 0.1250 0.3750 0.0000 (  3651 PWs)   bands (ev):

    -5.3003  -3.8955  -3.0557  -1.7887  -1.6684   0.4116   1.0952   1.2881
     2.6356   3.2347   3.2436   3.4330   4.6899   4.7799   5.3274   5.8468

          k = 0.1250 0.4375 0.0000 (  3663 PWs)   bands (ev):

    -4.8412  -3.7179  -3.4399  -2.3254  -1.3384  -0.2369   1.5359   1.7208
     2.6262   2.8048   3.0664   3.6420   4.1734   4.7280   5.1054   6.1367

          k = 0.1250-0.5000 0.0000 (  3654 PWs)   bands (ev):

    -4.3135  -4.3135  -2.9163  -2.9163  -0.8205  -0.8205   2.0162   2.0162
     2.2653   2.2653   3.5507   3.5507   4.1925   4.1925   5.5915   5.5915

          k = 0.1875 0.1875 0.0000 (  3667 PWs)   bands (ev):

    -6.0807  -4.6699  -2.5547  -0.5210  -0.5210   0.3398   0.8512   0.8512
     2.5103   2.8831   2.8831   4.8194   5.6471   5.6473   6.1660   6.1707

          k = 0.1875 0.2500 0.0000 (  3668 PWs)   bands (ev):

    -5.8320  -4.4230  -2.3105  -1.3666  -0.2945   0.0252   0.5808   1.0869
     2.0609   2.7410   3.1078   4.0157   4.8980   5.3623   5.8480   6.3827

          k = 0.1875 0.3125 0.0000 (  3663 PWs)   bands (ev):

    -5.5128  -4.1063  -2.1553  -1.9972  -0.7792   0.0346   0.8891   1.2884
     1.3940   3.0345   3.2616   3.3719   4.1962   4.6140   5.8804   6.5374

          k = 0.1875 0.3750 0.0000 (  3658 PWs)   bands (ev):

    -5.1236  -3.7201  -2.8817  -1.6153  -1.4965   0.4049   0.5814   1.2630
     1.7615   2.5670   3.3376   3.3755   3.9081   3.9432   5.4425   5.9113

          k = 0.1875 0.4375 0.0000 (  3646 PWs)   bands (ev):

    -4.6650  -3.5431  -3.2651  -2.1522  -1.1654  -0.0660   0.8436   1.6804
     1.9557   2.1976   2.7766   3.2459   3.8682   4.2687   4.8742   5.3022

          k = 0.1875-0.5000 0.0000 (  3650 PWs)   bands (ev):

    -4.1379  -4.1379  -2.7422  -2.7422  -0.6486  -0.6486   1.3455   1.3455
     2.2223   2.2223   2.6968   2.6968   4.3364   4.3364   4.7502   4.7502

          k = 0.2500 0.2500 0.0000 (  3659 PWs)   bands (ev):

    -5.5836  -4.1766  -2.0667  -1.1274  -1.1274   0.2519   0.2519   0.8205
     2.2923   2.2923   2.9683   3.2023   4.5563   5.1088   5.1088   6.4792

          k = 0.2500 0.3125 0.0000 (  3666 PWs)   bands (ev):

    -5.2650  -3.8605  -1.9136  -1.7543  -0.8317  -0.5159   0.5569   1.1256
     1.5262   2.4435   2.5847   3.2417   3.8227   4.3898   5.3446   5.7931

          k = 0.2500 0.3750 0.0000 (  3644 PWs)   bands (ev):

    -4.8765  -3.4750  -2.6384  -1.3730  -1.2582  -0.4315   0.8180   0.9305
     1.4779   1.7632   2.9141   3.0562   3.6720   3.7449   5.1199   5.4255

          k = 0.2500 0.4375 0.0000 (  3654 PWs)   bands (ev):

    -4.4187  -3.2988  -3.0208  -1.9104  -0.9242   0.0083   0.1729   1.0873
     1.3693   1.9505   2.4413   2.9349   3.5290   4.0727   4.5027   5.0482

          k = 0.2500-0.5000 0.0000 (  3666 PWs)   bands (ev):

    -3.8925  -3.8925  -2.4989  -2.4989  -0.4085  -0.4085   0.5163   0.5163
     1.8740   1.8740   2.4390   2.4390   3.9547   3.9547   4.5446   4.5446

          k = 0.3125 0.3125 0.0000 (  3668 PWs)   bands (ev):

    -4.9471  -3.5451  -1.6043  -1.6043  -1.4425  -0.2211  -0.2211   1.4098
     1.6980   1.8261   1.8261   2.9920   3.6057   4.6598   4.6598   5.0584

          k = 0.3125 0.3750 0.0000 (  3658 PWs)   bands (ev):

    -4.5594  -3.1605  -2.3264  -1.2385  -1.0623  -0.9254   0.1533   0.9568
     1.1226   1.8139   2.1862   2.3117   3.9405   3.9994   4.3766   4.9574

          k = 0.3125 0.4375 0.0000 (  3658 PWs)   bands (ev):

    -4.1027  -2.9853  -2.7076  -1.6024  -0.7693  -0.6148   0.3176   0.4791
     0.5957   1.6774   2.2356   2.5823   3.4170   3.7634   4.3466   5.0975

          k = 0.3125-0.5000 0.0000 (  3638 PWs)   bands (ev):

    -3.5776  -3.5776  -2.1870  -2.1870  -0.2596  -0.2596  -0.1004  -0.1004
     1.1044   1.1044   2.6647   2.6647   3.2716   3.2716   4.7842   4.7842

          k = 0.3750 0.3750 0.0000 (  3660 PWs)   bands (ev):

    -4.1729  -2.7773  -1.9470  -1.9470  -0.6837  -0.5609  -0.5609   0.2513
     1.4907   1.4907   1.6115   2.1675   3.6988   4.2804   4.3341   4.3341

          k = 0.3750 0.4375 0.0000 (  3653 PWs)   bands (ev):

    -3.7173  -2.6030  -2.3257  -1.5112  -1.2002  -0.3941  -0.2376  -0.1173
     0.8517   0.9711   1.9190   2.5291   3.1417   3.7360   4.6521   4.6970

          k = 0.3750-0.5000 0.0000 (  3644 PWs)   bands (ev):

    -3.1938  -3.1938  -1.8091  -1.8091  -0.9728  -0.9728   0.2746   0.2746
     0.3943   0.3943   2.3823   2.3823   3.2187   3.2187   4.9003   4.9003

          k = 0.4375 0.4375 0.0000 (  3646 PWs)   bands (ev):

    -3.2634  -2.1537  -2.1537  -1.8780  -1.0409  -0.7656  -0.7656   0.2063
     0.3271   1.2886   1.2886   2.3152   3.1524   4.1373   4.1373   4.8344

          k = 0.4375-0.5000 0.0000 (  3662 PWs)   bands (ev):

[...]
     ewald contribution        =     -16.25980282 Ry
     smearing contrib. (-TS)   =       0.00009529 Ry

     convergence has been achieved in  11 iterations

     Forces acting on atoms (Ry/au):

     atom    1 type  1   force =     0.00000000    0.00000000    0.00089369
     atom    2 type  1   force =     0.00000000    0.00000000    0.00089374
     atom    3 type  1   force =     0.00000000    0.00000000   -0.00275350
     atom    4 type  1   force =     0.00000000    0.00000000   -0.00275350
     atom    5 type  1   force =     0.00000000    0.00000000    0.00275326
     atom    6 type  1   force =     0.00000000    0.00000000    0.00275314
     atom    7 type  1   force =     0.00000000    0.00000000   -0.00089342
     atom    8 type  1   force =     0.00000000    0.00000000   -0.00089342

     Total force =     0.005789     Total SCF correction =     0.000125


     entering subroutine stress ...

          total   stress  (Ry/bohr**3)                   (kbar)     P=  -29.80
  -0.00026366   0.00000000   0.00000000        -38.79      0.00      0.00
   0.00000000  -0.00026366   0.00000000          0.00    -38.79      0.00
   0.00000000   0.00000000  -0.00008037          0.00      0.00    -11.82


     number of scf cycles    =  10
     number of bfgs steps    =   9

     energy   old            =     -99.5862720796 Ry
     energy   new            =     -99.5864028083 Ry

     CASE: energy  _new < energy  _old

     new trust radius        =       0.0180963779 bohr
     new conv_thr            =       0.0000000131 Ry


ATOMIC_POSITIONS (crystal)
Al       0.000000000   0.000000000  -0.008508291
Al       0.500000000   0.500000000  -0.008508339
Al       0.500000000   0.000000000   0.164447873
Al       0.000000000   0.500000000   0.164447873
Al       0.000000000   0.000000000   0.335552208
Al       0.500000000   0.500000000   0.335552267
Al       0.500000000   0.000000000   0.508508205
Al       0.000000000   0.500000000   0.508508205



     Writing output data file Al_100_2_1.save
     NEW-OLD atomic charge density approx. for the potential

     total cpu time spent up to now is      900.3 secs

     per-process dynamical memory:    70.2 Mb

     Self-consistent Calculation

     iteration #  1     ecut=    30.00 Ry     beta=0.30
     Davidson diagonalization with overlap
     ethr =  1.00E-06,  avg # of iterations =  3.9

     total cpu time spent up to now is      915.6 secs

     total energy              =     -99.58651553 Ry
     Harris-Foulkes estimate   =     -99.58653312 Ry
     estimated scf accuracy    <       0.00026167 Ry

     iteration #  2     ecut=    30.00 Ry     beta=0.30
     Davidson diagonalization with overlap
     ethr =  1.09E-06,  avg # of iterations =  1.0

     total cpu time spent up to now is      923.3 secs

     total energy              =     -99.58647802 Ry
     Harris-Foulkes estimate   =     -99.58651805 Ry
     estimated scf accuracy    <       0.00015415 Ry

     iteration #  3     ecut=    30.00 Ry     beta=0.30
     Davidson diagonalization with overlap
     ethr =  6.42E-07,  avg # of iterations =  2.3

     total cpu time spent up to now is      932.2 secs

     total energy              =     -99.58650116 Ry
     Harris-Foulkes estimate   =     -99.58650316 Ry
     estimated scf accuracy    <       0.00001329 Ry

     iteration #  4     ecut=    30.00 Ry     beta=0.30
     Davidson diagonalization with overlap
     ethr =  5.54E-08,  avg # of iterations =  1.4

     total cpu time spent up to now is      940.3 secs

     total energy              =     -99.58650149 Ry
     Harris-Foulkes estimate   =     -99.58650199 Ry
     estimated scf accuracy    <       0.00000236 Ry

     iteration #  5     ecut=    30.00 Ry     beta=0.30
     Davidson diagonalization with overlap
     ethr =  9.85E-09,  avg # of iterations =  3.0

     total cpu time spent up to now is      950.0 secs

     total energy              =     -99.58650200 Ry
     Harris-Foulkes estimate   =     -99.58650199 Ry
     estimated scf accuracy    <       0.00000059 Ry

     iteration #  6     ecut=    30.00 Ry     beta=0.30
     Davidson diagonalization with overlap
     ethr =  2.46E-09,  avg # of iterations =  1.0

     total cpu time spent up to now is      958.3 secs

     total energy              =     -99.58650197 Ry
     Harris-Foulkes estimate   =     -99.58650200 Ry
     estimated scf accuracy    <       0.00000070 Ry

     iteration #  7     ecut=    30.00 Ry     beta=0.30
     Davidson diagonalization with overlap
     ethr =  2.46E-09,  avg # of iterations =  1.0

     total cpu time spent up to now is      966.4 secs

     total energy              =     -99.58650191 Ry
     Harris-Foulkes estimate   =     -99.58650197 Ry
     estimated scf accuracy    <       0.00000046 Ry

     iteration #  8     ecut=    30.00 Ry     beta=0.30
     Davidson diagonalization with overlap
     ethr =  1.90E-09,  avg # of iterations =  1.2

     total cpu time spent up to now is      974.8 secs

     total energy              =     -99.58650193 Ry
     Harris-Foulkes estimate   =     -99.58650194 Ry
     estimated scf accuracy    <       0.00000003 Ry

     iteration #  9     ecut=    30.00 Ry     beta=0.30
     Davidson diagonalization with overlap
     ethr =  1.16E-10,  avg # of iterations =  3.0

     total cpu time spent up to now is      985.6 secs

     total energy              =     -99.58650193 Ry
     Harris-Foulkes estimate   =     -99.58650194 Ry
     estimated scf accuracy    <       0.00000005 Ry

     iteration # 10     ecut=    30.00 Ry     beta=0.30
     Davidson diagonalization with overlap
     ethr =  1.16E-10,  avg # of iterations =  2.0

     total cpu time spent up to now is      994.6 secs

     End of self-consistent calculation

          k = 0.0000 0.0000 0.0000 (  3655 PWs)   bands (ev):

    -6.5337  -5.1895  -3.1651  -0.3657   1.7333   1.7333   1.8144   2.9771
     2.9771   3.0994   3.0994   4.4705   4.4705   4.8583   4.8583   5.7121

          k = 0.0000 0.0625 0.0000 (  3657 PWs)   bands (ev):

    -6.4981  -5.1541  -3.1301  -0.3309   1.1651   1.7664   1.8478   2.4272
     3.0103   3.1534   3.7173   4.3384   4.5215   4.8913   5.0597   5.7438

          k = 0.0000 0.1250 0.0000 (  3663 PWs)   bands (ev):

    -6.3910  -5.0478  -3.0249  -0.2265   0.2629   1.5469   1.8646   1.9481
     3.1087   3.2585   3.4824   4.5209   4.8992   4.9893   5.8388   5.9868

          k = 0.0000 0.1875 0.0000 (  3671 PWs)   bands (ev):

    -6.2126  -4.8707  -2.8497  -0.6357  -0.0528   0.6618   2.0286   2.1149
     2.6145   3.2728   3.4288   4.7381   5.1529   5.2735   5.9939   6.0472

          k = 0.0000 0.2500 0.0000 (  3665 PWs)   bands (ev):

    -5.9633  -4.6232  -2.6048  -1.4854  -0.1797   0.1900   1.7865   2.2591
     2.3487   3.5026   3.6595   4.5098   4.9721   5.3810   6.2006   6.4670

          k = 0.0000 0.3125 0.0000 (  3653 PWs)   bands (ev):

    -5.6433  -4.3055  -2.2901  -2.2766  -0.9641   0.5018   1.0129   2.5543
     2.6490   3.6897   3.7977   4.0446   5.2315   5.6756   5.7107   5.8986

          k = 0.0000 0.3750 0.0000 (  3658 PWs)   bands (ev):

    -5.2531  -3.9183  -3.0053  -1.9070  -1.6870   0.2990   0.8806   2.9165
     3.0147   3.0400   4.1593   4.3750   5.0202   5.0682   5.7506   6.0345

          k = 0.0000 0.4375 0.0000 (  3664 PWs)   bands (ev):

    -4.7934  -3.6686  -3.4619  -2.3455  -1.4555  -0.3517   1.3261   2.4092
     3.3438   3.4451   4.3955   4.4898   4.5864   4.8054   5.6360   5.8314

          k = 0.0000-0.5000 0.0000 (  3658 PWs)   bands (ev):

    -4.2650  -4.2650  -2.9374  -2.9374  -0.9367  -0.9367   1.8364   1.8364
     3.8368   3.8368   3.9387   3.9387   5.0785   5.0785   5.2963   5.2963

          k = 0.0625 0.0625 0.0000 (  3665 PWs)   bands (ev):

    -6.4624  -5.1187  -3.0951  -0.2962   1.1978   1.1978   1.8813   2.4668
     2.4668   3.7722   3.7722   4.3743   4.3743   5.0984   5.0984   5.7753

          k = 0.0625 0.1250 0.0000 (  3670 PWs)   bands (ev):

    -6.3553  -5.0124  -2.9899  -0.1918   0.2969   1.2924   1.5902   1.9813
     2.5684   3.5160   3.8798   4.4701   4.8229   5.2287   5.8674   6.1122

          k = 0.0625 0.1875 0.0000 (  3682 PWs)   bands (ev):

    -6.1770  -4.8354  -2.8148  -0.6013  -0.0181   0.6939   1.4700   2.1482
     2.6463   2.7364   4.0469   4.6187   5.3265   5.3644   6.0090   6.0846

          k = 0.0625 0.2500 0.0000 (  3675 PWs)   bands (ev):

    -5.9277  -4.5879  -2.5698  -1.4509  -0.1458   0.2246   1.7021   1.8199
     2.3819   2.9677   4.2425   4.5327   4.9360   5.5574   5.8842   6.3214

          k = 0.0625 0.3125 0.0000 (  3649 PWs)   bands (ev):

    -5.6078  -4.2703  -2.2552  -2.2419  -0.9298   0.5363   1.0466   2.0021
     2.6820   3.2662   3.7578   4.6160   5.1760   5.1905   5.6880   6.0548

          k = 0.0625 0.3750 0.0000 (  3647 PWs)   bands (ev):

    -5.2177  -3.8831  -2.9704  -1.8723  -1.6526   0.3331   0.9147   2.3663
     3.0471   3.0806   3.6288   4.4911   4.9749   5.1462   5.5448   5.7511

          k = 0.0625 0.4375 0.0000 (  3655 PWs)   bands (ev):

    -4.7581  -3.6335  -3.4269  -2.3108  -1.4209  -0.3173   1.3597   2.4369
     2.8109   3.4760   3.8652   4.0470   4.5520   5.1290   5.4014   5.9667

          k = 0.0625-0.5000 0.0000 (  3662 PWs)   bands (ev):

    -4.2298  -4.2298  -2.9025  -2.9025  -0.9023  -0.9023   1.8692   1.8692
     3.3035   3.3035   3.9608   3.9608   4.5783   4.5783   5.8840   5.8840

          k = 0.1250 0.1250 0.0000 (  3681 PWs)   bands (ev):

    -6.2483  -4.9062  -2.8848  -0.0876   0.3974   0.3974   1.6878   1.6878
     2.0813   3.6134   3.6134   4.9548   4.9548   5.9428   6.2411   6.2411

          k = 0.1250 0.1875 0.0000 (  3682 PWs)   bands (ev):

    -6.0701  -4.7293  -2.7098  -0.4984   0.0858   0.5558   0.8133   1.8555
     2.2480   2.7466   3.7721   5.1034   5.4873   5.8007   6.1010   6.2485

          k = 0.1250 0.2500 0.0000 (  3672 PWs)   bands (ev):

    -5.8211  -4.4820  -2.4650  -1.3477  -0.0453   0.3282   0.8106   1.9202
     2.0906   2.4812   3.9719   4.6815   5.0627   5.3869   6.3366   6.3726

          k = 0.1250 0.3125 0.0000 (  3663 PWs)   bands (ev):

    -5.5014  -4.1647  -2.1510  -2.1380  -0.8270   0.6390   1.1127   1.1480
     2.3918   2.7802   3.8158   4.3178   4.3976   5.5901   5.6760   5.8796

          k = 0.1250 0.3750 0.0000 (  3651 PWs)   bands (ev):

    -5.1115  -3.7778  -2.8658  -1.7681  -1.5488   0.4354   1.0170   1.4823
     2.7591   3.1431   3.1711   3.6265   4.7141   4.9035   5.2461   6.0346

          k = 0.1250 0.4375 0.0000 (  3663 PWs)   bands (ev):

    -4.6523  -3.5285  -3.3220  -2.2065  -1.3172  -0.2143   1.4604   1.9163
     2.5484   2.9957   3.1899   3.5610   4.2877   4.6424   5.1321   6.1622

          k = 0.1250-0.5000 0.0000 (  3654 PWs)   bands (ev):

    -4.1244  -4.1244  -2.7979  -2.7979  -0.7988  -0.7988   1.9646   1.9646
     2.4330   2.4330   3.6648   3.6648   4.1136   4.1136   5.6189   5.6189

          k = 0.1875 0.1875 0.0000 (  3667 PWs)   bands (ev):

    -5.8922  -4.5527  -2.5348  -0.3285  -0.3285   0.2592   0.9726   0.9726
     2.4146   2.9110   2.9110   5.0138   5.5913   5.5913   6.2909   6.3420

          k = 0.1875 0.2500 0.0000 (  3668 PWs)   bands (ev):

    -5.6434  -4.3057  -2.2904  -1.1753  -0.1020   0.1456   0.5009   1.2089
     2.0869   2.6465   3.1360   4.2101   4.8245   5.4867   5.7794   6.5689

          k = 0.1875 0.3125 0.0000 (  3663 PWs)   bands (ev):

    -5.3242  -3.9888  -1.9769  -1.9649  -0.6572   0.2250   0.8105   1.3163
     1.5131   2.9424   3.3969   3.4543   4.1221   4.7367   5.8168   6.5223

          k = 0.1875 0.3750 0.0000 (  3658 PWs)   bands (ev):

    -4.9348  -3.6023  -2.6918  -1.5946  -1.3765   0.5970   0.6054   1.1868
     1.8836   2.7570   3.2841   3.2940   3.9105   4.0562   5.3656   5.9347

          k = 0.1875 0.4375 0.0000 (  3646 PWs)   bands (ev):

    -4.4760  -3.3536  -3.1470  -2.0331  -1.1442  -0.0432   1.0368   1.6248
     2.1254   2.3201   2.7018   3.3563   3.7906   4.2907   4.7898   5.3279

          k = 0.1875-0.5000 0.0000 (  3650 PWs)   bands (ev):

    -3.9487  -3.9487  -2.6237  -2.6237  -0.6268  -0.6268   1.5405   1.5405
     2.1427   2.1427   2.8191   2.8191   4.2490   4.2490   4.7752   4.7752

          k = 0.2500 0.2500 0.0000 (  3659 PWs)   bands (ev):

    -5.3949  -4.0591  -2.0465  -0.9357  -0.9357   0.3720   0.3720   0.7416
     2.3191   2.3191   2.8759   3.3947   4.6788   5.0340   5.0340   6.4626

          k = 0.2500 0.3125 0.0000 (  3666 PWs)   bands (ev):

    -5.0763  -3.7428  -1.7336  -1.7229  -0.6400  -0.3964   0.6774   1.0491
     1.5517   2.6119   2.6332   3.1597   3.9352   4.3118   5.2738   5.8158

          k = 0.2500 0.3750 0.0000 (  3644 PWs)   bands (ev):

    -4.6876  -3.3571  -2.4483  -1.3520  -1.1369  -0.2418   0.8418   1.0520
     1.4202   1.9342   2.9377   3.1649   3.5948   3.6689   5.1448   5.3605

          k = 0.2500 0.4375 0.0000 (  3654 PWs)   bands (ev):

    -4.2296  -3.1091  -2.9026  -1.7909  -0.9027   0.1959   0.1998   1.2820
     1.4909   1.8701   2.5628   2.8806   3.5298   3.9845   4.5268   4.9698

          k = 0.2500-0.5000 0.0000 (  3666 PWs)   bands (ev):

    -3.7032  -3.7032  -2.3801  -2.3801  -0.3863  -0.3863   0.7091   0.7091
     1.9959   1.9959   2.3635   2.3635   3.9756   3.9756   4.4592   4.4592

          k = 0.3125 0.3125 0.0000 (  3668 PWs)   bands (ev):

    -4.7583  -3.4271  -1.4215  -1.4130  -1.4130  -0.1018  -0.1018   1.3515
     1.8520   1.8520   1.8694   3.1001   3.5286   4.5833   4.5833   5.0829

          k = 0.3125 0.3750 0.0000 (  3658 PWs)   bands (ev):

    -4.3704  -3.0424  -2.1360  -1.0471  -1.0410  -0.8067   0.2729   1.1477
     1.1513   1.7331   2.2126   2.4330   3.8517   3.9203   4.4003   4.8860

          k = 0.3125 0.4375 0.0000 (  3658 PWs)   bands (ev):

    -3.9134  -2.7954  -2.5890  -1.4816  -0.5931  -0.5800   0.5002   0.5101
     0.7185   1.7989   2.1596   2.6052   3.3405   3.7838   4.2604   5.0317

          k = 0.3125-0.5000 0.0000 (  3638 PWs)   bands (ev):

    -3.3881  -3.3881  -2.0678  -2.0678  -0.0781  -0.0781  -0.0684  -0.0684
     1.2258   1.2258   2.6099   2.6099   3.2718   3.2718   4.7048   4.7048

          k = 0.3750 0.3750 0.0000 (  3660 PWs)   bands (ev):

    -3.9837  -2.6588  -1.7560  -1.7560  -0.6621  -0.4422  -0.4422   0.4436
     1.5163   1.5163   1.7330   2.0914   3.7191   4.1938   4.2571   4.2571

          k = 0.3750 0.4375 0.0000 (  3653 PWs)   bands (ev):

    -3.5279  -2.4128  -2.2066  -1.3200  -1.0819  -0.2156  -0.2031   0.0015
     0.8767   1.0924   1.9451   2.4741   3.1416   3.6564   4.5722   4.6254

          k = 0.3750-0.5000 0.0000 (  3644 PWs)   bands (ev):

    -3.0040  -3.0040  -1.6885  -1.6885  -0.7837  -0.7837   0.2946   0.2946
     0.5179   0.5179   2.4046   2.4046   3.1418   3.1418   4.8339   4.8339

          k = 0.4375 0.4375 0.0000 (  3646 PWs)   bands (ev):

    -3.0737  -1.9629  -1.9629  -1.7576  -0.8518  -0.6473  -0.6473   0.2258
     0.4508   1.3140   1.3140   2.3374   3.0755   4.0601   4.0601   4.7679

          k = 0.4375-0.5000 0.0000 (  3662 PWs)   bands (ev):

    -2.5517  -2.5517  -1.4570  -1.4570  -1.2199  -1.2199  -0.1348  -0.1348
     0.7410   0.7410   1.8108   1.8108   3.5239   3.5239   4.4945   4.4945

          k =-0.5000-0.5000 0.0000 (  3668 PWs)   bands (ev):

    -2.0319  -2.0319  -2.0319  -2.0319  -0.7160  -0.7160  -0.7160  -0.7160
     1.2463   1.2463   1.2463   1.2463   3.9939   3.9939   3.9939   3.9939

     the Fermi energy is     4.0180 ev

!    total energy              =     -99.58650194 Ry
     Harris-Foulkes estimate   =     -99.58650194 Ry
     estimated scf accuracy    <          5.5E-11 Ry

     The total energy is the sum of the following terms:

     one-electron contribution =     -23.73769935 Ry
     hartree contribution      =      20.35845424 Ry
     xc contribution           =     -79.73392138 Ry
     ewald contribution        =     -16.47336890 Ry
     smearing contrib. (-TS)   =       0.00003345 Ry

     convergence has been achieved in  10 iterations

     Forces acting on atoms (Ry/au):

     atom    1 type  1   force =     0.00000000    0.00000000    0.00050416
     atom    2 type  1   force =     0.00000000    0.00000000    0.00050421
     atom    3 type  1   force =     0.00000000    0.00000000   -0.00067482
     atom    4 type  1   force =     0.00000000    0.00000000   -0.00067482
     atom    5 type  1   force =     0.00000000    0.00000000    0.00067465
     atom    6 type  1   force =     0.00000000    0.00000000    0.00067455
     atom    7 type  1   force =     0.00000000    0.00000000   -0.00050396
     atom    8 type  1   force =     0.00000000    0.00000000   -0.00050396

     Total force =     0.001684     Total SCF correction =     0.000007


     entering subroutine stress ...

          total   stress  (Ry/bohr**3)                   (kbar)     P=  -30.46
  -0.00026735   0.00000000   0.00000000        -39.33      0.00      0.00
   0.00000000  -0.00026735   0.00000000          0.00    -39.33      0.00
   0.00000000   0.00000000  -0.00008650          0.00      0.00    -12.72


     bfgs converged in  11 scf cycles and  10 bfgs steps
     (criteria: energy <  1.0E-04, force <  1.0E-03)

     End of BFGS Geometry Optimization

     Final energy   =     -99.5865019350 Ry
Begin final coordinates

ATOMIC_POSITIONS (crystal)
Al       0.000000000   0.000000000  -0.008508291
Al       0.500000000   0.500000000  -0.008508339
Al       0.500000000   0.000000000   0.164447873
Al       0.000000000   0.500000000   0.164447873
Al       0.000000000   0.000000000   0.335552208
Al       0.500000000   0.500000000   0.335552267
Al       0.500000000   0.000000000   0.508508205
Al       0.000000000   0.500000000   0.508508205
End final coordinates



     Writing output data file Al_100_2_1.save

     init_run     :      5.68s CPU      7.37s WALL (       1 calls)
     electrons    :    681.61s CPU    947.33s WALL (      11 calls)
     update_pot   :      1.80s CPU      1.96s WALL (      10 calls)
     forces       :     12.65s CPU     13.21s WALL (      11 calls)
     stress       :     25.55s CPU     26.62s WALL (      11 calls)

     Called by init_run:
     wfcinit      :      5.26s CPU      6.92s WALL (       1 calls)
     potinit      :      0.09s CPU      0.11s WALL (       1 calls)

     Called by electrons:
     c_bands      :    568.97s CPU    786.69s WALL (     102 calls)
     sum_band     :     95.25s CPU    140.45s WALL (     102 calls)
     v_of_rho     :      8.40s CPU      9.32s WALL (     111 calls)
     newd         :      5.63s CPU      5.84s WALL (     111 calls)
     mix_rho      :      4.10s CPU      5.66s WALL (     102 calls)

     Called by c_bands:
     init_us_2    :      9.14s CPU     11.47s WALL (   10215 calls)
     cegterg      :    559.40s CPU    774.99s WALL (    4590 calls)

     Called by *egterg:
     h_psi        :    395.43s CPU    592.30s WALL (   13213 calls)
     s_psi        :     35.72s CPU     40.53s WALL (   13213 calls)
     g_psi        :      1.68s CPU      2.01s WALL (    8578 calls)
     cdiaghg      :      6.84s CPU      8.19s WALL (   12628 calls)

     Called by h_psi:
     add_vuspsi   :     36.16s CPU     40.79s WALL (   13213 calls)

     General routines
     calbec       :     54.18s CPU     66.12s WALL (   18793 calls)
     fft          :      5.57s CPU      7.09s WALL (    2025 calls)
     ffts         :      2.11s CPU      3.11s WALL (    1948 calls)
     fftw         :    367.37s CPU    575.04s WALL (  419626 calls)
     interpolate  :      0.81s CPU      1.20s WALL (     213 calls)
     davcio       :      0.00s CPU      0.04s WALL (      45 calls)

     Parallel routines
     fft_scatter  :     14.32s CPU     23.81s WALL (  423599 calls)

     PWSCF        : 12m 8.96s CPU    16m38.30s WALL


   This run was terminated on:  20:51:48  26May2020            

=------------------------------------------------------------------------------=
   JOB DONE.
=------------------------------------------------------------------------------=
