
     Program PWSCF v.6.4.1 starts on 28May2020 at  0:44:22 

     This program is part of the open-source Quantum ESPRESSO suite
     for quantum simulation of materials; please cite
         "P. Giannozzi et al., J. Phys.:Condens. Matter 21 395502 (2009);
         "P. Giannozzi et al., J. Phys.:Condens. Matter 29 465901 (2017);
          URL http://www.quantum-espresso.org", 
     in publications or presentations arising from this work. More details at
     http://www.quantum-espresso.org/quote

     Parallel version (MPI & OpenMP), running on       1 processor cores
     Number of MPI processes:                 1
     Threads/MPI process:                     1

     MPI processes distributed on     1 nodes
     Reading input from Al_111_bulk_90.pw.in
Warning: card  &IONS ignored
Warning: card   ION_DYNAMICS = 'BFGS', ignored
Warning: card  / ignored
Warning: card  &CELL ignored
Warning: card  / ignored

     Current dimensions of program PWSCF are:
     Max number of different atomic species (ntypx) = 10
     Max number of k-points (npk) =  40000
     Max angular momentum in pseudopotentials (lmaxx) =  3

     Subspace diagonalization in iterative solution of the eigenvalue problem:
     a serial algorithm will be used

     Found symmetry operation: I + (  0.3333 -0.3333  0.3333)
     This is a supercell, fractional translations are disabled
 
     G-vector sticks info
     --------------------
     sticks:   dense  smooth     PW     G-vecs:    dense   smooth      PW
     Sum         595     595    421                28891    28891   17161
 


     bravais-lattice index     =            4
     lattice parameter (alat)  =       7.6050  a.u.
     unit-cell volume          =     933.0478 (a.u.)^3
     number of atoms/cell      =            3
     number of atomic types    =            1
     number of electrons       =         9.00
     number of Kohn-Sham states=            9
     kinetic-energy cutoff     =      90.0000  Ry
     charge density cutoff     =     150.0000  Ry
     convergence threshold     =      1.0E-08
     mixing beta               =       0.3000
     number of iterations used =            8  local-TF  mixing
     Exchange-correlation      =  SLA  PW   PBE  PBE ( 1  4  3  4 0 0)

     celldm(1)=   7.605000  celldm(2)=   0.000000  celldm(3)=   2.449490
     celldm(4)=   0.000000  celldm(5)=   0.000000  celldm(6)=   0.000000

     crystal axes: (cart. coord. in units of alat)
               a(1) = (   1.000000   0.000000   0.000000 )  
               a(2) = (  -0.500000   0.866025   0.000000 )  
               a(3) = (   0.000000   0.000000   2.449490 )  

     reciprocal axes: (cart. coord. in units 2 pi/alat)
               b(1) = (  1.000000  0.577350  0.000000 )  
               b(2) = (  0.000000  1.154701  0.000000 )  
               b(3) = (  0.000000  0.000000  0.408248 )  


     PseudoPot. # 1 for Al read from file:
     ./Al.pbe-n-van.UPF
     MD5 check sum: b11ded24487aef5bc42d5c7a2e22a7b6
     Pseudo is Ultrasoft + core correction, Zval =  3.0
     Generated by new atomic code, or converted to UPF format
     Using radial grid of  893 points,  2 beta functions with: 
                l(1) =   0
                l(2) =   1
     Q(r) pseudized with  8 coefficients,  rinner =    0.900   0.900   0.900


     atomic species   valence    mass     pseudopotential
        Al             3.00    26.98000     Al( 1.00)

     12 Sym. Ops., with inversion, found



   Cartesian axes

     site n.     atom                  positions (alat units)
         1           Al  tau(   1) = (   0.0000000   0.0000000   0.0000000  )
         2           Al  tau(   2) = (  -0.0000000   0.5773503   0.8164966  )
         3           Al  tau(   3) = (   0.5000000   0.2886751   1.6329932  )

     number of k points=   480  Marzari-Vanderbilt smearing, width (Ry)=  0.0250

     Number of k-points >= 100: set verbosity='high' to print them.

     Dense  grid:    28891 G-vectors     FFT dimensions: (  30,  30,  75)

     Estimated max dynamical RAM per process >     930.09 MB

     Initial potential from superposition of free atoms

     starting charge    8.99260, renormalised to    9.00000
     Starting wfcs are   12 randomized atomic wfcs

     total cpu time spent up to now is       17.8 secs

     Self-consistent Calculation

     iteration #  1     ecut=    90.00 Ry     beta= 0.30
     Davidson diagonalization with overlap
     ethr =  1.00E-02,  avg # of iterations =  2.6

     Threshold (ethr) on eigenvalues was too large:
     Diagonalizing with lowered threshold

     Davidson diagonalization with overlap
     ethr =  1.13E-04,  avg # of iterations =  2.8

     total cpu time spent up to now is       87.1 secs

     total energy              =     -37.02509677 Ry
     Harris-Foulkes estimate   =     -37.02568672 Ry
     estimated scf accuracy    <       0.01023506 Ry

     iteration #  2     ecut=    90.00 Ry     beta= 0.30
     Davidson diagonalization with overlap
     ethr =  1.14E-04,  avg # of iterations =  1.0

     total cpu time spent up to now is      113.5 secs

     total energy              =     -37.02333168 Ry
     Harris-Foulkes estimate   =     -37.02515309 Ry
     estimated scf accuracy    <       0.00688079 Ry

     iteration #  3     ecut=    90.00 Ry     beta= 0.30
     Davidson diagonalization with overlap
     ethr =  7.65E-05,  avg # of iterations =  1.0

     total cpu time spent up to now is      139.8 secs

     total energy              =     -37.02379807 Ry
     Harris-Foulkes estimate   =     -37.02378863 Ry
     estimated scf accuracy    <       0.00001506 Ry

     iteration #  4     ecut=    90.00 Ry     beta= 0.30
     Davidson diagonalization with overlap
     ethr =  1.67E-07,  avg # of iterations =  4.2

     total cpu time spent up to now is      186.3 secs

     total energy              =     -37.02384225 Ry
     Harris-Foulkes estimate   =     -37.02384071 Ry
     estimated scf accuracy    <       0.00000433 Ry

     iteration #  5     ecut=    90.00 Ry     beta= 0.30
     Davidson diagonalization with overlap
     ethr =  4.81E-08,  avg # of iterations =  1.0

     total cpu time spent up to now is      212.6 secs

     total energy              =     -37.02384261 Ry
     Harris-Foulkes estimate   =     -37.02384249 Ry
     estimated scf accuracy    <       0.00000090 Ry

     iteration #  6     ecut=    90.00 Ry     beta= 0.30
     Davidson diagonalization with overlap
     ethr =  1.00E-08,  avg # of iterations =  2.0

     total cpu time spent up to now is      245.8 secs

     total energy              =     -37.02384261 Ry
     Harris-Foulkes estimate   =     -37.02384295 Ry
     estimated scf accuracy    <       0.00000100 Ry

     iteration #  7     ecut=    90.00 Ry     beta= 0.30
     Davidson diagonalization with overlap
     ethr =  1.00E-08,  avg # of iterations =  2.0

     total cpu time spent up to now is      278.8 secs

     total energy              =     -37.02384276 Ry
     Harris-Foulkes estimate   =     -37.02384284 Ry
     estimated scf accuracy    <       0.00000034 Ry

     iteration #  8     ecut=    90.00 Ry     beta= 0.30
     Davidson diagonalization with overlap
     ethr =  3.82E-09,  avg # of iterations =  1.0

     total cpu time spent up to now is      305.1 secs

     total energy              =     -37.02384276 Ry
     Harris-Foulkes estimate   =     -37.02384277 Ry
     estimated scf accuracy    <       0.00000004 Ry

     iteration #  9     ecut=    90.00 Ry     beta= 0.30
     Davidson diagonalization with overlap
     ethr =  3.97E-10,  avg # of iterations =  1.0

     total cpu time spent up to now is      331.4 secs

     End of self-consistent calculation

     Number of k-points >= 100: set verbosity='high' to print the bands.

     the Fermi energy is     0.7133 ev

!    total energy              =     -37.02384276 Ry
     Harris-Foulkes estimate   =     -37.02384276 Ry
     estimated scf accuracy    <          4.2E-09 Ry

     The total energy is the sum of the following terms:

     one-electron contribution =       3.18046705 Ry
     hartree contribution      =       0.36743787 Ry
     xc contribution           =     -29.06113253 Ry
     ewald contribution        =     -11.51001326 Ry
     smearing contrib. (-TS)   =      -0.00060190 Ry

     convergence has been achieved in   9 iterations

     Forces acting on atoms (cartesian axes, Ry/au):

     atom    1 type  1   force =     0.00000000   -0.00000000    0.00000000
     atom    2 type  1   force =     0.00000000    0.00000000    0.00000000
     atom    3 type  1   force =     0.00000000    0.00000000   -0.00000000

     Total force =     0.000000     Total SCF correction =     0.000000
     SCF correction compared to forces is large: reduce conv_thr to get better values


     Computing stress (Cartesian axis) and pressure

          total   stress  (Ry/bohr**3)                   (kbar)     P=  -64.95
  -0.00044125   0.00000000   0.00000000        -64.91      0.00      0.00
   0.00000000  -0.00044125   0.00000000          0.00    -64.91      0.00
   0.00000000   0.00000000  -0.00044196          0.00      0.00    -65.01


     Writing output data file Al_111_bulk.save/
 
     init_run     :     17.32s CPU     17.72s WALL (       1 calls)
     electrons    :    311.71s CPU    313.67s WALL (       1 calls)
     forces       :      4.14s CPU      4.15s WALL (       1 calls)
     stress       :     23.82s CPU     23.90s WALL (       1 calls)

     Called by init_run:
     wfcinit      :     16.45s CPU     16.82s WALL (       1 calls)
     potinit      :      0.05s CPU      0.05s WALL (       1 calls)
     hinit0       :      0.78s CPU      0.80s WALL (       1 calls)

     Called by electrons:
     c_bands      :    260.34s CPU    261.76s WALL (      10 calls)
     sum_band     :     50.76s CPU     51.24s WALL (      10 calls)
     v_of_rho     :      0.37s CPU      0.38s WALL (      10 calls)
     newd         :      0.09s CPU      0.11s WALL (      10 calls)
     mix_rho      :      0.19s CPU      0.22s WALL (      10 calls)

     Called by c_bands:
     init_us_2    :     26.18s CPU     26.40s WALL (   11040 calls)
     cegterg      :    235.07s CPU    235.99s WALL (    4800 calls)

     Called by sum_band:
     sum_band:bec :      0.03s CPU      0.03s WALL (    4800 calls)
     addusdens    :      0.09s CPU      0.12s WALL (      10 calls)

     Called by *egterg:
     h_psi        :    185.12s CPU    185.70s WALL (   14198 calls)
     s_psi        :      7.00s CPU      7.03s WALL (   14198 calls)
     g_psi        :      7.46s CPU      7.48s WALL (    8918 calls)
     cdiaghg      :      2.31s CPU      2.38s WALL (   13238 calls)

     Called by h_psi:
     h_psi:pot    :    182.50s CPU    183.06s WALL (   14198 calls)
     h_psi:calbec :      7.55s CPU      7.59s WALL (   14198 calls)
     vloc_psi     :    167.85s CPU    168.35s WALL (   14198 calls)
     add_vuspsi   :      7.02s CPU      7.06s WALL (   14198 calls)

     General routines
     calbec       :     11.79s CPU     11.85s WALL (   21398 calls)
     fft          :      0.09s CPU      0.10s WALL (     136 calls)
     ffts         :      0.08s CPU      0.08s WALL (     126 calls)
     fftw         :    171.29s CPU    171.80s WALL (  262450 calls)
 
     Parallel routines
 
     PWSCF        :   5m57.42s CPU   6m10.09s WALL

 
   This run was terminated on:   0:50:33  28May2020            

=------------------------------------------------------------------------------=
   JOB DONE.
=------------------------------------------------------------------------------=
