--------------------------------------------------------------------------
[[18344,1],0]: A high-performance Open MPI point-to-point messaging module
was unable to find any relevant network interfaces:

Module: OpenFabrics (openib)
  Host: ubuntu

Another transport will be used instead, although this may result in
lower performance.
--------------------------------------------------------------------------

     Program PWSCF v.5.1 starts on 27May2020 at 22:51:50 

     This program is part of the open-source Quantum ESPRESSO suite
     for quantum simulation of materials; please cite
         "P. Giannozzi et al., J. Phys.:Condens. Matter 21 395502 (2009);
          URL http://www.quantum-espresso.org", 
     in publications or presentations arising from this work. More details at
     http://www.quantum-espresso.org/quote

     Parallel version (MPI), running on     1 processors
     Reading input from Al_111_bulk_40.pw.in
Warning: card  &IONS ignored
Warning: card   ION_DYNAMICS = 'BFGS', ignored
Warning: card  / ignored
Warning: card  &CELL ignored
Warning: card  / ignored

     Current dimensions of program PWSCF are:
     Max number of different atomic species (ntypx) = 10
     Max number of k-points (npk) =  40000
     Max angular momentum in pseudopotentials (lmaxx) =  3

     Subspace diagonalization in iterative solution of the eigenvalue problem:
     a serial algorithm will be used

     Found symmetry operation: I + (  0.3333 -0.3333  0.3333)
     This is a supercell, fractional translations are disabled

     G-vector sticks info
     --------------------
     sticks:   dense  smooth     PW     G-vecs:    dense   smooth      PW
     Sum         595     595    199                28891    28891    5713



     bravais-lattice index     =            4
     lattice parameter (alat)  =       7.6050  a.u.
     unit-cell volume          =     933.0478 (a.u.)^3
     number of atoms/cell      =            3
     number of atomic types    =            1
     number of electrons       =         9.00
     number of Kohn-Sham states=            9
     kinetic-energy cutoff     =      40.0000  Ry
     charge density cutoff     =     150.0000  Ry
     convergence threshold     =      1.0E-08
     mixing beta               =       0.3000
     number of iterations used =            8  local-TF  mixing
     Exchange-correlation      =  SLA  PW   PBE  PBE ( 1  4  3  4 0)

     celldm(1)=   7.605000  celldm(2)=   0.000000  celldm(3)=   2.449490
     celldm(4)=   0.000000  celldm(5)=   0.000000  celldm(6)=   0.000000

     crystal axes: (cart. coord. in units of alat)
               a(1) = (   1.000000   0.000000   0.000000 )  
               a(2) = (  -0.500000   0.866025   0.000000 )  
               a(3) = (   0.000000   0.000000   2.449490 )  

     reciprocal axes: (cart. coord. in units 2 pi/alat)
               b(1) = (  1.000000  0.577350 -0.000000 )  
               b(2) = (  0.000000  1.154701  0.000000 )  
               b(3) = (  0.000000 -0.000000  0.408248 )  


     PseudoPot. # 1 for Al read from file:
     ./Al.pbe-n-van.UPF
     MD5 check sum: b11ded24487aef5bc42d5c7a2e22a7b6
     Pseudo is Ultrasoft + core correction, Zval =  3.0
     Generated by new atomic code, or converted to UPF format
     Using radial grid of  893 points,  2 beta functions with: 
                l(1) =   0
                l(2) =   1
     Q(r) pseudized with  8 coefficients,  rinner =    0.900   0.900   0.900


     atomic species   valence    mass     pseudopotential
        Al             3.00    26.98000     Al( 1.00)

     12 Sym. Ops., with inversion, found



   Cartesian axes

     site n.     atom                  positions (alat units)
         1           Al  tau(   1) = (   0.0000000   0.0000000   0.0000000  )
         2           Al  tau(   2) = (  -0.0000000   0.5773503   0.8164966  )
         3           Al  tau(   3) = (   0.5000000   0.2886751   1.6329932  )

     number of k points=   480  Marzari-Vanderbilt smearing, width (Ry)=  0.0250

     Number of k-points >= 100: set verbosity='high' to print them.

     Dense  grid:    28891 G-vectors     FFT dimensions: (  30,  30,  75)

     Largest allocated arrays     est. size (Mb)     dimensions
        Kohn-Sham Wavefunctions         0.55 Mb     (    4030,    9)
        NL pseudopotentials             0.74 Mb     (    4030,   12)
        Each V/rho on FFT grid          1.03 Mb     (   67500)
        Each G-vector array             0.22 Mb     (   28891)
        G-vector shells                 0.01 Mb     (    1099)
     Largest temporary arrays     est. size (Mb)     dimensions
        Auxiliary wavefunctions         2.21 Mb     (    4030,   36)
        Each subspace H/S matrix        0.02 Mb     (      36,   36)
        Each <psi_i|beta_j> matrix      0.00 Mb     (      12,    9)
        Arrays for rho mixing           8.24 Mb     (   67500,    8)

     Initial potential from superposition of free atoms

     starting charge    8.99260, renormalised to    9.00000
     Starting wfc are   12 randomized atomic wfcs

     total cpu time spent up to now is       36.7 secs

     per-process dynamical memory:   289.7 Mb

     Self-consistent Calculation

     iteration #  1     ecut=    40.00 Ry     beta=0.30
     Davidson diagonalization with overlap
     ethr =  1.00E-02,  avg # of iterations =  2.4

     Threshold (ethr) on eigenvalues was too large:
     Diagonalizing with lowered threshold

     Davidson diagonalization with overlap
     ethr =  1.12E-04,  avg # of iterations =  2.8

     total cpu time spent up to now is      195.4 secs

     total energy              =     -37.02453592 Ry
     Harris-Foulkes estimate   =     -37.02512211 Ry
     estimated scf accuracy    <       0.01026193 Ry

     iteration #  2     ecut=    40.00 Ry     beta=0.30
     Davidson diagonalization with overlap
     ethr =  1.14E-04,  avg # of iterations =  1.0

     total cpu time spent up to now is      256.2 secs

     total energy              =     -37.02275245 Ry
     Harris-Foulkes estimate   =     -37.02459298 Ry
     estimated scf accuracy    <       0.00691740 Ry

     iteration #  3     ecut=    40.00 Ry     beta=0.30
     Davidson diagonalization with overlap
     ethr =  7.69E-05,  avg # of iterations =  1.0

     total cpu time spent up to now is      316.5 secs

     total energy              =     -37.02322449 Ry
     Harris-Foulkes estimate   =     -37.02321511 Ry
     estimated scf accuracy    <       0.00001853 Ry

     iteration #  4     ecut=    40.00 Ry     beta=0.30
     Davidson diagonalization with overlap
     c_bands:  1 eigenvalues not converged
     ethr =  2.06E-07,  avg # of iterations =  4.2

     total cpu time spent up to now is      419.6 secs

     total energy              =     -37.02326957 Ry
     Harris-Foulkes estimate   =     -37.02326666 Ry
     estimated scf accuracy    <       0.00000345 Ry

     iteration #  5     ecut=    40.00 Ry     beta=0.30
     Davidson diagonalization with overlap
     ethr =  3.83E-08,  avg # of iterations =  1.3

     total cpu time spent up to now is      482.3 secs

     total energy              =     -37.02326970 Ry
     Harris-Foulkes estimate   =     -37.02326980 Ry
     estimated scf accuracy    <       0.00000156 Ry

     iteration #  6     ecut=    40.00 Ry     beta=0.30
     Davidson diagonalization with overlap
     ethr =  1.74E-08,  avg # of iterations =  2.0

     total cpu time spent up to now is      557.3 secs

     total energy              =     -37.02326988 Ry
     Harris-Foulkes estimate   =     -37.02327011 Ry
     estimated scf accuracy    <       0.00000081 Ry

     iteration #  7     ecut=    40.00 Ry     beta=0.30
     Davidson diagonalization with overlap
     ethr =  9.02E-09,  avg # of iterations =  2.0

     total cpu time spent up to now is      632.4 secs

     total energy              =     -37.02327000 Ry
     Harris-Foulkes estimate   =     -37.02327009 Ry
     estimated scf accuracy    <       0.00000036 Ry

     iteration #  8     ecut=    40.00 Ry     beta=0.30
     Davidson diagonalization with overlap
     ethr =  3.95E-09,  avg # of iterations =  1.0

     total cpu time spent up to now is      692.0 secs

     total energy              =     -37.02327001 Ry
     Harris-Foulkes estimate   =     -37.02327002 Ry
     estimated scf accuracy    <       0.00000004 Ry

     iteration #  9     ecut=    40.00 Ry     beta=0.30
     Davidson diagonalization with overlap
     ethr =  4.57E-10,  avg # of iterations =  1.6

     total cpu time spent up to now is      753.9 secs

     End of self-consistent calculation

     Number of k-points >= 100: set verbosity='high' to print the bands.

     the Fermi energy is     0.7141 ev

!    total energy              =     -37.02327001 Ry
     Harris-Foulkes estimate   =     -37.02327001 Ry
     estimated scf accuracy    <          5.9E-11 Ry

     The total energy is the sum of the following terms:

     one-electron contribution =       3.18085222 Ry
     hartree contribution      =       0.36722544 Ry
     xc contribution           =     -29.06073307 Ry
     ewald contribution        =     -11.51001326 Ry
     smearing contrib. (-TS)   =      -0.00060135 Ry

     convergence has been achieved in   9 iterations

     Forces acting on atoms (Ry/au):

     atom    1 type  1   force =    -0.00000000    0.00000000    0.00000000
     atom    2 type  1   force =     0.00000000    0.00000000   -0.00000001
     atom    3 type  1   force =     0.00000000    0.00000000    0.00000001

     Total force =     0.000000     Total SCF correction =     0.000000
     SCF correction compared to forces is large: reduce conv_thr to get better values


     entering subroutine stress ...

          total   stress  (Ry/bohr**3)                   (kbar)     P=  -64.93
  -0.00044116   0.00000000   0.00000000        -64.90      0.00      0.00
   0.00000000  -0.00044116  -0.00000000          0.00    -64.90     -0.00
   0.00000000  -0.00000000  -0.00044186          0.00     -0.00    -65.00


     Writing output data file Al_111_bulk.save

     init_run     :     29.84s CPU     36.66s WALL (       1 calls)
     electrons    :    562.03s CPU    717.19s WALL (       1 calls)
     forces       :      1.99s CPU      2.47s WALL (       1 calls)
     stress       :     11.14s CPU     12.01s WALL (       1 calls)

     Called by init_run:
     wfcinit      :     29.23s CPU     36.01s WALL (       1 calls)
     potinit      :      0.09s CPU      0.11s WALL (       1 calls)

     Called by electrons:
     c_bands      :    472.44s CPU    601.89s WALL (      10 calls)
     sum_band     :     88.45s CPU    113.98s WALL (      10 calls)
     v_of_rho     :      0.58s CPU      0.66s WALL (      10 calls)
     newd         :      0.21s CPU      0.23s WALL (      10 calls)
     mix_rho      :      0.39s CPU      0.50s WALL (      10 calls)

     Called by c_bands:
     init_us_2    :      8.18s CPU     10.64s WALL (   11040 calls)
     cegterg      :    466.82s CPU    594.07s WALL (    4800 calls)

     Called by *egterg:
     h_psi        :    444.13s CPU    558.72s WALL (   14560 calls)
     s_psi        :      7.00s CPU     10.23s WALL (   14560 calls)
     g_psi        :      0.84s CPU      1.34s WALL (    9280 calls)
     cdiaghg      :      2.10s CPU      3.14s WALL (   13600 calls)

     Called by h_psi:
     add_vuspsi   :      7.61s CPU     10.42s WALL (   14560 calls)

     General routines
     calbec       :     12.73s CPU     16.37s WALL (   20320 calls)
     fft          :      0.30s CPU      0.40s WALL (     157 calls)
     ffts         :      0.22s CPU      0.30s WALL (     114 calls)
     fftw         :    487.78s CPU    612.90s WALL (  263226 calls)
     davcio       :      0.00s CPU      0.11s WALL (     480 calls)

     Parallel routines
     fft_scatter  :     10.93s CPU     14.48s WALL (  263497 calls)

     PWSCF        : 10m 5.70s CPU    12m49.22s WALL


   This run was terminated on:  23: 4:39  27May2020            

=------------------------------------------------------------------------------=
   JOB DONE.
=------------------------------------------------------------------------------=
