--------------------------------------------------------------------------
[[2797,1],0]: A high-performance Open MPI point-to-point messaging module
was unable to find any relevant network interfaces:

Module: OpenFabrics (openib)
  Host: ubuntu

Another transport will be used instead, although this may result in
lower performance.
--------------------------------------------------------------------------

     Program PWSCF v.5.1 starts on 26May2020 at 21:31:41 

     This program is part of the open-source Quantum ESPRESSO suite
     for quantum simulation of materials; please cite
         "P. Giannozzi et al., J. Phys.:Condens. Matter 21 395502 (2009);
          URL http://www.quantum-espresso.org", 
     in publications or presentations arising from this work. More details at
     http://www.quantum-espresso.org/quote

     Parallel version (MPI), running on     1 processors
     Reading input from Al_100_bulk_3.pw.in

     Current dimensions of program PWSCF are:
     Max number of different atomic species (ntypx) = 10
     Max number of k-points (npk) =  40000
     Max angular momentum in pseudopotentials (lmaxx) =  3

     Subspace diagonalization in iterative solution of the eigenvalue problem:
     a serial algorithm will be used

     Found symmetry operation: I + ( -0.5000 -0.5000  0.0000)
     This is a supercell, fractional translations are disabled

     G-vector sticks info
     --------------------
     sticks:   dense  smooth     PW     G-vecs:    dense   smooth      PW
     Sum         681     553    177                68149    48869    8297



     bravais-lattice index     =            6
     lattice parameter (alat)  =       7.6050  a.u.
     unit-cell volume          =    2199.2149 (a.u.)^3
     number of atoms/cell      =            8
     number of atomic types    =            1
     number of electrons       =        24.00
     number of Kohn-Sham states=           16
     kinetic-energy cutoff     =      30.0000  Ry
     charge density cutoff     =     150.0000  Ry
     convergence threshold     =      1.0E-06
     mixing beta               =       0.3000
     number of iterations used =            8  local-TF  mixing
     Exchange-correlation      =  SLA  PW   PBE  PBE ( 1  4  3  4 0)
     nstep                     =           50


     celldm(1)=   7.605000  celldm(2)=   0.000000  celldm(3)=   5.000000
     celldm(4)=   0.000000  celldm(5)=   0.000000  celldm(6)=   0.000000

     crystal axes: (cart. coord. in units of alat)
               a(1) = (   1.000000   0.000000   0.000000 )  
               a(2) = (   0.000000   1.000000   0.000000 )  
               a(3) = (   0.000000   0.000000   5.000000 )  

     reciprocal axes: (cart. coord. in units 2 pi/alat)
               b(1) = (  1.000000  0.000000  0.000000 )  
               b(2) = (  0.000000  1.000000  0.000000 )  
               b(3) = (  0.000000  0.000000  0.200000 )  


     PseudoPot. # 1 for Al read from file:
     ./Al.pbe-n-van.UPF
     MD5 check sum: b11ded24487aef5bc42d5c7a2e22a7b6
     Pseudo is Ultrasoft + core correction, Zval =  3.0
     Generated by new atomic code, or converted to UPF format
     Using radial grid of  893 points,  2 beta functions with: 
                l(1) =   0
                l(2) =   1
     Q(r) pseudized with  8 coefficients,  rinner =    0.900   0.900   0.900


     atomic species   valence    mass     pseudopotential
        Al             3.00    26.98000     Al( 1.00)

      8 Sym. Ops. (no inversion) found



   Cartesian axes

     site n.     atom                  positions (alat units)
         1           Al  tau(   1) = (   0.0000000   0.0000000   0.0000000  )
         2           Al  tau(   2) = (   0.5000000   0.5000000   0.0000000  )
         3           Al  tau(   3) = (   0.5000000   0.0000000   0.5000000  )
         4           Al  tau(   4) = (   0.0000000   0.5000000   0.5000000  )
         5           Al  tau(   5) = (   0.0000000   0.0000000   1.0000000  )
         6           Al  tau(   6) = (   0.5000000   0.5000000   1.0000000  )
         7           Al  tau(   7) = (   0.5000000   0.0000000   1.5000000  )
         8           Al  tau(   8) = (   0.0000000   0.5000000   1.5000000  )

     number of k points=    45  Marzari-Vanderbilt smearing, width (Ry)=  0.0250
                       cart. coord. in units 2pi/alat
        k(    1) = (   0.0000000   0.0000000   0.0000000), wk =   0.0078125
        k(    2) = (   0.0000000   0.0625000   0.0000000), wk =   0.0312500
        k(    3) = (   0.0000000   0.1250000   0.0000000), wk =   0.0312500
        k(    4) = (   0.0000000   0.1875000   0.0000000), wk =   0.0312500
        k(    5) = (   0.0000000   0.2500000   0.0000000), wk =   0.0312500
        k(    6) = (   0.0000000   0.3125000   0.0000000), wk =   0.0312500
        k(    7) = (   0.0000000   0.3750000   0.0000000), wk =   0.0312500
        k(    8) = (   0.0000000   0.4375000   0.0000000), wk =   0.0312500
        k(    9) = (   0.0000000  -0.5000000   0.0000000), wk =   0.0156250
        k(   10) = (   0.0625000   0.0625000   0.0000000), wk =   0.0312500
        k(   11) = (   0.0625000   0.1250000   0.0000000), wk =   0.0625000
        k(   12) = (   0.0625000   0.1875000   0.0000000), wk =   0.0625000
        k(   13) = (   0.0625000   0.2500000   0.0000000), wk =   0.0625000
        k(   14) = (   0.0625000   0.3125000   0.0000000), wk =   0.0625000
        k(   15) = (   0.0625000   0.3750000   0.0000000), wk =   0.0625000
        k(   16) = (   0.0625000   0.4375000   0.0000000), wk =   0.0625000
        k(   17) = (   0.0625000  -0.5000000   0.0000000), wk =   0.0312500
        k(   18) = (   0.1250000   0.1250000   0.0000000), wk =   0.0312500
        k(   19) = (   0.1250000   0.1875000   0.0000000), wk =   0.0625000
        k(   20) = (   0.1250000   0.2500000   0.0000000), wk =   0.0625000
        k(   21) = (   0.1250000   0.3125000   0.0000000), wk =   0.0625000
        k(   22) = (   0.1250000   0.3750000   0.0000000), wk =   0.0625000
        k(   23) = (   0.1250000   0.4375000   0.0000000), wk =   0.0625000
        k(   24) = (   0.1250000  -0.5000000   0.0000000), wk =   0.0312500
        k(   25) = (   0.1875000   0.1875000   0.0000000), wk =   0.0312500
        k(   26) = (   0.1875000   0.2500000   0.0000000), wk =   0.0625000
        k(   27) = (   0.1875000   0.3125000   0.0000000), wk =   0.0625000
        k(   28) = (   0.1875000   0.3750000   0.0000000), wk =   0.0625000
        k(   29) = (   0.1875000   0.4375000   0.0000000), wk =   0.0625000
        k(   30) = (   0.1875000  -0.5000000   0.0000000), wk =   0.0312500
        k(   31) = (   0.2500000   0.2500000   0.0000000), wk =   0.0312500
        k(   32) = (   0.2500000   0.3125000   0.0000000), wk =   0.0625000
        k(   33) = (   0.2500000   0.3750000   0.0000000), wk =   0.0625000
        k(   34) = (   0.2500000   0.4375000   0.0000000), wk =   0.0625000
        k(   35) = (   0.2500000  -0.5000000   0.0000000), wk =   0.0312500
        k(   36) = (   0.3125000   0.3125000   0.0000000), wk =   0.0312500
        k(   37) = (   0.3125000   0.3750000   0.0000000), wk =   0.0625000
        k(   38) = (   0.3125000   0.4375000   0.0000000), wk =   0.0625000
        k(   39) = (   0.3125000  -0.5000000   0.0000000), wk =   0.0312500
        k(   40) = (   0.3750000   0.3750000   0.0000000), wk =   0.0312500
        k(   41) = (   0.3750000   0.4375000   0.0000000), wk =   0.0625000
        k(   42) = (   0.3750000  -0.5000000   0.0000000), wk =   0.0312500
        k(   43) = (   0.4375000   0.4375000   0.0000000), wk =   0.0312500
        k(   44) = (   0.4375000  -0.5000000   0.0000000), wk =   0.0312500
        k(   45) = (  -0.5000000  -0.5000000   0.0000000), wk =   0.0078125

     Dense  grid:    68149 G-vectors     FFT dimensions: (  30,  30, 150)

     Smooth grid:    48869 G-vectors     FFT dimensions: (  27,  27, 135)

     Largest allocated arrays     est. size (Mb)     dimensions
        Kohn-Sham Wavefunctions         1.50 Mb     (    6140,   16)
        NL pseudopotentials             3.00 Mb     (    6140,   32)
        Each V/rho on FFT grid          2.06 Mb     (  135000)
        Each G-vector array             0.52 Mb     (   68149)
        G-vector shells                 0.01 Mb     (    1894)
     Largest temporary arrays     est. size (Mb)     dimensions
        Auxiliary wavefunctions         6.00 Mb     (    6140,   64)
        Each subspace H/S matrix        0.06 Mb     (      64,   64)
        Each <psi_i|beta_j> matrix      0.01 Mb     (      32,   16)
        Arrays for rho mixing          16.48 Mb     (  135000,    8)

     Initial potential from superposition of free atoms

     starting charge   23.98028, renormalised to   24.00000

     negative rho (up, down):  2.557E-05 0.000E+00
     Starting wfc are   32 randomized atomic wfcs

     total cpu time spent up to now is       12.1 secs

     per-process dynamical memory:   107.0 Mb

     Self-consistent Calculation

     iteration #  1     ecut=    30.00 Ry     beta=0.30
     Davidson diagonalization with overlap
     ethr =  1.00E-02,  avg # of iterations =  2.9

     total cpu time spent up to now is       35.1 secs

     total energy              =     -99.63436419 Ry
     Harris-Foulkes estimate   =     -99.66825418 Ry
     estimated scf accuracy    <       0.57008828 Ry

     iteration #  2     ecut=    30.00 Ry     beta=0.30
     Davidson diagonalization with overlap
     ethr =  2.38E-03,  avg # of iterations =  1.0

     negative rho (up, down):  5.058E-05 0.000E+00

     total cpu time spent up to now is       50.1 secs

     total energy              =     -99.50894924 Ry
     Harris-Foulkes estimate   =     -99.64053674 Ry
     estimated scf accuracy    <       0.42778794 Ry

     iteration #  3     ecut=    30.00 Ry     beta=0.30
     Davidson diagonalization with overlap
     ethr =  1.78E-03,  avg # of iterations =  2.3

     total cpu time spent up to now is       66.2 secs

     total energy              =     -99.56758672 Ry
     Harris-Foulkes estimate   =     -99.60499521 Ry
     estimated scf accuracy    <       0.17447212 Ry

     iteration #  4     ecut=    30.00 Ry     beta=0.30
     Davidson diagonalization with overlap
     ethr =  7.27E-04,  avg # of iterations =  2.1

     total cpu time spent up to now is       80.8 secs

     total energy              =     -99.58087522 Ry
     Harris-Foulkes estimate   =     -99.58422631 Ry
     estimated scf accuracy    <       0.01413664 Ry

     iteration #  5     ecut=    30.00 Ry     beta=0.30
     Davidson diagonalization with overlap
     ethr =  5.89E-05,  avg # of iterations =  3.4

     total cpu time spent up to now is       96.8 secs

     total energy              =     -99.58181985 Ry
     Harris-Foulkes estimate   =     -99.58267923 Ry
     estimated scf accuracy    <       0.01216553 Ry

     iteration #  6     ecut=    30.00 Ry     beta=0.30
     Davidson diagonalization with overlap
     ethr =  5.07E-05,  avg # of iterations =  2.3

     total cpu time spent up to now is      112.4 secs

     total energy              =     -99.57209964 Ry
     Harris-Foulkes estimate   =     -99.58433860 Ry
     estimated scf accuracy    <       0.05506267 Ry

     iteration #  7     ecut=    30.00 Ry     beta=0.30
     Davidson diagonalization with overlap
     ethr =  5.07E-05,  avg # of iterations =  2.7

     negative rho (up, down):  5.248E-03 0.000E+00

     total cpu time spent up to now is      130.3 secs

     total energy              =     -99.58186763 Ry
     Harris-Foulkes estimate   =     -99.58129479 Ry
     estimated scf accuracy    <       0.01138118 Ry

     iteration #  8     ecut=    30.00 Ry     beta=0.30
     Davidson diagonalization with overlap
     ethr =  4.74E-05,  avg # of iterations =  2.1

     negative rho (up, down):  2.656E-03 0.000E+00

     total cpu time spent up to now is      146.8 secs

     total energy              =     -99.57833600 Ry
     Harris-Foulkes estimate   =     -99.58275518 Ry
     estimated scf accuracy    <       0.03374673 Ry

     iteration #  9     ecut=    30.00 Ry     beta=0.30
     Davidson diagonalization with overlap
     ethr =  4.74E-05,  avg # of iterations =  2.3

     negative rho (up, down):  1.807E-03 0.000E+00

     total cpu time spent up to now is      162.1 secs

     total energy              =     -99.57890107 Ry
     Harris-Foulkes estimate   =     -99.57972511 Ry
     estimated scf accuracy    <       0.00441589 Ry

     iteration # 10     ecut=    30.00 Ry     beta=0.30
     Davidson diagonalization with overlap
     ethr =  1.84E-05,  avg # of iterations =  2.4

     negative rho (up, down):  3.871E-04 0.000E+00

     total cpu time spent up to now is      178.3 secs

     total energy              =     -99.57954511 Ry
     Harris-Foulkes estimate   =     -99.57954424 Ry
     estimated scf accuracy    <       0.00027700 Ry

     iteration # 11     ecut=    30.00 Ry     beta=0.30
     Davidson diagonalization with overlap
     ethr =  1.15E-06,  avg # of iterations =  2.8

     negative rho (up, down):  1.101E-04 0.000E+00

     total cpu time spent up to now is      195.9 secs

     total energy              =     -99.57960007 Ry
     Harris-Foulkes estimate   =     -99.57958137 Ry
     estimated scf accuracy    <       0.00000689 Ry

     iteration # 12     ecut=    30.00 Ry     beta=0.30
     Davidson diagonalization with overlap
     ethr =  2.87E-08,  avg # of iterations =  2.9

     total cpu time spent up to now is      214.6 secs

     total energy              =     -99.57960337 Ry
     Harris-Foulkes estimate   =     -99.57960249 Ry
     estimated scf accuracy    <       0.00000174 Ry

     iteration # 13     ecut=    30.00 Ry     beta=0.30
     Davidson diagonalization with overlap
     ethr =  7.23E-09,  avg # of iterations =  2.8

     negative rho (up, down):  3.218E-05 0.000E+00

     total cpu time spent up to now is      232.8 secs

     total energy              =     -99.57960277 Ry
     Harris-Foulkes estimate   =     -99.57960422 Ry
     estimated scf accuracy    <       0.00000541 Ry

     iteration # 14     ecut=    30.00 Ry     beta=0.30
     Davidson diagonalization with overlap
     ethr =  7.23E-09,  avg # of iterations =  2.6

     negative rho (up, down):  1.580E-05 0.000E+00

     total cpu time spent up to now is      250.6 secs

     total energy              =     -99.57960383 Ry
     Harris-Foulkes estimate   =     -99.57960396 Ry
     estimated scf accuracy    <       0.00000191 Ry

     iteration # 15     ecut=    30.00 Ry     beta=0.30
     Davidson diagonalization with overlap
     ethr =  7.23E-09,  avg # of iterations =  1.0

     total cpu time spent up to now is      264.4 secs

     End of self-consistent calculation

          k = 0.0000 0.0000 0.0000 (  6123 PWs)   bands (ev):

   -10.0778  -8.6796  -6.4905  -3.6202  -1.8225  -1.8225  -1.2924  -0.5332
    -0.5332  -0.4492  -0.4492   0.9911   0.9911   1.5143   1.5143   2.1843

          k = 0.0000 0.0625 0.0000 (  6131 PWs)   bands (ev):

   -10.0422  -8.6442  -6.4554  -3.5853  -2.3873  -1.7900  -1.2590  -1.0802
    -0.5004  -0.3892   0.1630   0.9551   1.0899   1.5470   1.5694   2.2168

          k = 0.0000 0.1250 0.0000 (  6135 PWs)   bands (ev):

    -9.9351  -8.5380  -6.3502  -3.4810  -3.2869  -1.9549  -1.6914  -1.1593
    -0.4018  -0.2845   0.1382   1.0114   1.3862   1.6451   2.3134   2.5803

          k = 0.0000 0.1875 0.0000 (  6133 PWs)   bands (ev):

    -9.7568  -8.3610  -6.1752  -4.1834  -3.3075  -2.8364  -1.5273  -0.9935
    -0.7239  -0.2377  -0.1157   1.2558   1.8084   2.0157   2.4704   2.5030

          k = 0.0000 0.2500 0.0000 (  6115 PWs)   bands (ev):

    -9.5075  -8.1138  -5.9306  -5.0322  -3.6754  -3.0651  -1.5487  -1.2973
    -0.7614  -0.0084   0.1117   1.2590   1.4939   2.0368   2.6765   2.9070

          k = 0.0000 0.3125 0.0000 (  6117 PWs)   bands (ev):

    -9.1877  -7.7964  -5.8231  -5.6168  -4.4590  -2.7548  -2.3202  -1.0022
    -0.4642   0.2870   0.2872   0.6494   1.7737   2.1514   2.3314   2.7316

          k = 0.0000 0.3750 0.0000 (  6090 PWs)   bands (ev):

    -8.7976  -7.4093  -6.5510  -5.2340  -5.1803  -3.0318  -2.3767  -0.6405
    -0.2343  -0.1015   0.6481   0.8512   1.4616   1.8652   2.3377   2.6905

          k = 0.0000 0.4375 0.0000 (  6100 PWs)   bands (ev):

    -8.3381  -7.2138  -6.9534  -5.8379  -4.7833  -3.6812  -1.9327  -0.8550
    -0.2137   0.3247   0.8373   1.0743   1.2694   1.3528   2.1235   2.2791

          k = 0.0000-0.5000 0.0000 (  6086 PWs)   bands (ev):

    -7.8099  -7.8099  -6.4293  -6.4293  -4.2653  -4.2653  -1.4242  -1.4242
     0.2789   0.2789   0.8124   0.8124   1.5663   1.5663   1.7532   1.7532

          k = 0.0625 0.0625 0.0000 (  6129 PWs)   bands (ev):

   -10.0064  -8.6088  -6.4203  -3.5506  -2.3546  -2.3546  -1.2257  -1.0383
    -1.0383   0.2229   0.2229   1.0292   1.0292   1.6181   1.6181   2.2487

          k = 0.0625 0.1250 0.0000 (  6136 PWs)   bands (ev):

    -9.8994  -8.5026  -6.3152  -3.4462  -3.2531  -2.2609  -1.9095  -1.1261
    -0.9366   0.1758   0.3315   1.1279   1.2683   1.7502   2.3421   2.6531

          k = 0.0625 0.1875 0.0000 (  6140 PWs)   bands (ev):

    -9.7211  -8.3257  -6.1402  -4.1493  -3.2729  -2.8050  -2.0812  -0.9605
    -0.7804  -0.6779   0.4972   1.2779   1.8328   2.1134   2.4809   2.5435

          k = 0.0625 0.2500 0.0000 (  6125 PWs)   bands (ev):

    -9.4720  -8.0785  -5.8958  -4.9978  -3.6419  -3.0308  -1.8501  -1.5156
    -0.7288  -0.5352   0.7036   1.2489   1.6181   2.0744   2.3218   2.8131

          k = 0.0625 0.3125 0.0000 (  6103 PWs)   bands (ev):

    -9.1521  -7.7611  -5.7884  -5.5819  -4.4246  -2.7205  -2.2863  -1.5512
    -0.4317  -0.2376   0.4718   1.0988   1.6179   1.8535   2.3137   2.7934

          k = 0.0625 0.3750 0.0000 (  6091 PWs)   bands (ev):

    -8.7622  -7.3742  -6.5162  -5.1993  -5.1458  -2.9978  -2.3427  -1.1880
    -0.1837  -0.0698   0.1253   0.9356   1.4370   1.9930   2.2059   2.2449

          k = 0.0625 0.4375 0.0000 (  6087 PWs)   bands (ev):

    -8.3028  -7.1788  -6.9184  -5.8032  -4.7487  -3.6469  -1.8993  -0.8658
    -0.7009   0.3118   0.3539   0.5498   1.4109   1.6245   1.8573   2.6271

          k = 0.0625-0.5000 0.0000 (  6102 PWs)   bands (ev):

    -7.7747  -7.7747  -6.3944  -6.3944  -4.2309  -4.2309  -1.3930  -1.3930
    -0.2475  -0.2475   0.8118   0.8118   1.0962   1.0962   2.3339   2.3339

          k = 0.1250 0.1250 0.0000 (  6133 PWs)   bands (ev):

    -9.7924  -8.3964  -6.2102  -3.3422  -3.1530  -3.1530  -1.8121  -1.8121
    -1.0267   0.2742   0.2742   1.4020   1.4020   2.4136   2.7628   2.7628

          k = 0.1250 0.1875 0.0000 (  6118 PWs)   bands (ev):

    -9.6143  -8.2197  -6.0354  -4.0468  -3.1691  -2.9958  -2.6824  -1.6450
    -0.8613  -0.5886   0.4328   1.5558   2.2363   2.2372   2.5512   2.7460

          k = 0.1250 0.2500 0.0000 (  6118 PWs)   bands (ev):

    -9.3653  -7.9726  -5.7911  -4.8946  -3.5426  -2.9274  -2.7377  -1.4443
    -1.3787  -0.6303   0.6333   1.3964   1.5051   1.8717   2.8334   2.8944

          k = 0.1250 0.3125 0.0000 (  6109 PWs)   bands (ev):

    -9.0457  -7.6556  -5.6844  -5.4776  -4.3220  -2.6179  -2.4373  -2.1853
    -1.1068  -0.3347   0.5343   0.7640   1.0798   2.0873   2.1360   2.7038

          k = 0.1250 0.3750 0.0000 (  6081 PWs)   bands (ev):

    -8.6560  -7.2689  -6.4117  -5.0953  -5.0423  -2.8957  -2.2413  -2.0687
    -0.7399  -0.0911   0.0234   0.0752   1.3815   1.4029   2.1002   2.4889

          k = 0.1250 0.4375 0.0000 (  6083 PWs)   bands (ev):

    -8.1970  -7.0738  -6.8135  -5.6992  -4.6451  -3.5443  -1.8006  -1.6364
    -0.7093  -0.5520  -0.3088   0.4169   0.8087   1.5069   1.7973   2.8232

          k = 0.1250-0.5000 0.0000 (  6074 PWs)   bands (ev):

    -7.6693  -7.6693  -6.2897  -6.2897  -4.1275  -4.1275  -1.3253  -1.3253
    -1.0863  -1.0863   0.1799   0.1799   0.9708   0.9708   2.2823   2.2823

          k = 0.1875 0.1875 0.0000 (  6117 PWs)   bands (ev):

    -9.4364  -8.0432  -5.8609  -3.8775  -3.8775  -2.9966  -2.5240  -2.5240
    -0.6966  -0.4253  -0.4253   1.4560   2.3135   2.3135   2.7883   2.8172

          k = 0.1875 0.2500 0.0000 (  6108 PWs)   bands (ev):

    -9.1877  -7.7964  -5.6168  -4.7228  -3.6525  -3.3481  -2.7556  -2.2886
    -1.2468  -0.4672  -0.2011   0.6568   1.5653   1.9849   2.5200   3.0261

          k = 0.1875 0.3125 0.0000 (  6091 PWs)   bands (ev):

    -8.8685  -7.4797  -5.5114  -5.3037  -4.1535  -3.3219  -2.4473  -2.0299
    -1.9703  -0.1758  -0.0958   0.0611   0.8652   1.2380   2.5875   3.1409

          k = 0.1875 0.3750 0.0000 (  6080 PWs)   bands (ev):

    -8.4793  -7.0935  -6.2378  -4.9220  -4.8706  -2.9517  -2.7260  -2.0738
    -1.6134  -0.7895   0.0065   0.1518   0.5789   0.5963   2.2030   2.5970

          k = 0.1875 0.4375 0.0000 (  6078 PWs)   bands (ev):

    -8.0208  -6.8991  -6.6387  -5.5260  -4.4725  -3.3732  -2.5134  -1.6605
    -1.3965  -1.1774  -0.5583  -0.1232   0.6467   0.9601   1.6494   1.9924

          k = 0.1875-0.5000 0.0000 (  6098 PWs)   bands (ev):

    -7.4938  -7.4938  -6.1158  -6.1158  -3.9558  -3.9558  -2.0120  -2.0120
    -1.1133  -1.1133  -0.6781  -0.6781   1.1171   1.1171   1.4416   1.4416

          k = 0.2500 0.2500 0.0000 (  6089 PWs)   bands (ev):

    -8.9393  -7.5499  -5.3732  -4.4839  -4.4839  -3.1230  -3.1230  -2.5160
    -1.0160  -1.0160  -0.2420  -0.1551   1.1805   1.7766   1.7766   3.0807

          k = 0.2500 0.3125 0.0000 (  6094 PWs)   bands (ev):

    -8.6207  -7.2339  -5.2697  -5.0608  -4.1895  -3.8887  -2.8184  -2.2110
    -1.7810  -0.9133  -0.7242   0.0187   0.4584   1.0570   2.0161   2.4781

          k = 0.2500 0.3750 0.0000 (  6088 PWs)   bands (ev):

    -8.2323  -6.8485  -5.9945  -4.6799  -4.6324  -3.7881  -2.4942  -2.4396
    -1.8628  -1.5896  -0.3973  -0.3122   0.4135   0.4506   1.8101   2.1340

          k = 0.2500 0.4375 0.0000 (  6088 PWs)   bands (ev):

    -7.7745  -6.6547  -6.3944  -5.2841  -4.2311  -3.3483  -3.1344  -2.2700
    -2.0054  -1.3850  -0.9332  -0.3966   0.2169   0.8546   1.1941   1.8102

          k = 0.2500-0.5000 0.0000 (  6098 PWs)   bands (ev):

    -7.2484  -7.2484  -5.8725  -5.8725  -3.7156  -3.7156  -2.8405  -2.8405
    -1.5008  -1.5008  -0.8961  -0.8961   0.6461   0.6461   1.3214   1.3214

          k = 0.3125 0.3125 0.0000 (  6098 PWs)   bands (ev):

    -8.3029  -6.9185  -4.9604  -4.9604  -4.7489  -3.5950  -3.5950  -1.9302
    -1.6547  -1.4817  -1.4817  -0.3760   0.3848   1.3270   1.3270   1.7482

          k = 0.3125 0.3750 0.0000 (  6092 PWs)   bands (ev):

    -7.9152  -6.5341  -5.6825  -4.5960  -4.3692  -4.2981  -3.2208  -2.4004
    -2.1851  -1.5216  -1.1221  -1.0626   0.6657   0.7228   1.0679   1.6287

          k = 0.3125 0.4375 0.0000 (  6088 PWs)   bands (ev):

    -7.4584  -6.3412  -6.0811  -4.9762  -4.1254  -3.9217  -3.0390  -2.8297
    -2.7771  -1.6974  -1.0998  -0.7286   0.0853   0.4545   1.1240   1.8072

          k = 0.3125-0.5000 0.0000 (  6082 PWs)   bands (ev):

    -6.9335  -6.9335  -5.5609  -5.5609  -3.6160  -3.6160  -3.4078  -3.4078
    -2.2702  -2.2702  -0.6670  -0.6670  -0.0407  -0.0407   1.5470   1.5470

          k = 0.3750 0.3750 0.0000 (  6086 PWs)   bands (ev):

    -7.5286  -6.1507  -5.3032  -5.3032  -3.9907  -3.9348  -3.9348  -3.1054
    -1.8170  -1.8170  -1.7632  -1.1679   0.3903   1.0008   1.0008   1.0581

          k = 0.3750 0.4375 0.0000 (  6079 PWs)   bands (ev):

    -7.0732  -5.9591  -5.6995  -4.8686  -4.5726  -3.7505  -3.5448  -3.4914
    -2.4557  -2.4035  -1.3893  -0.8025  -0.1702   0.4021   1.3680   1.4154

          k = 0.3750-0.5000 0.0000 (  6084 PWs)   bands (ev):

    -6.5497  -6.5497  -5.1830  -5.1830  -4.3287  -4.3287  -3.0328  -3.0328
    -2.9798  -2.9798  -0.9288  -0.9288  -0.1133  -0.1133   1.6102   1.6102

          k = 0.4375 0.4375 0.0000 (  6100 PWs)   bands (ev):

    -6.6193  -5.5099  -5.5099  -5.2521  -4.3970  -4.1398  -4.1398  -3.1011
    -3.0474  -2.0193  -2.0193  -0.9955  -0.1797   0.8035   0.8035   1.5447

          k = 0.4375-0.5000 0.0000 (  6110 PWs)   bands (ev):

    -6.0978  -6.0978  -5.0055  -5.0055  -4.7104  -4.7104  -3.6272  -3.6272
    -2.5918  -2.5918  -1.5234  -1.5234   0.2691   0.2691   1.2370   1.2370

          k =-0.5000-0.5000 0.0000 (  6124 PWs)   bands (ev):

    -5.5788  -5.5788  -5.5788  -5.5788  -4.2081  -4.2081  -4.2081  -4.2081
    -2.0871  -2.0871  -2.0871  -2.0871   0.7371   0.7371   0.7371   0.7371

     the Fermi energy is     0.6747 ev

!    total energy              =     -99.57960333 Ry
     Harris-Foulkes estimate   =     -99.57960388 Ry
     estimated scf accuracy    <       0.00000060 Ry

     The total energy is the sum of the following terms:

     one-electron contribution =    -261.70618845 Ry
     hartree contribution      =     136.38908531 Ry
     xc contribution           =     -79.84163792 Ry
     ewald contribution        =     105.57893421 Ry
     smearing contrib. (-TS)   =       0.00020351 Ry

     convergence has been achieved in  15 iterations

     Forces acting on atoms (Ry/au):

     atom    1 type  1   force =     0.00000000    0.00000000   -0.00552569
     atom    2 type  1   force =     0.00000000    0.00000000   -0.00552579
     atom    3 type  1   force =     0.00000000    0.00000000    0.00128128
     atom    4 type  1   force =     0.00000000    0.00000000    0.00128128
     atom    5 type  1   force =     0.00000000    0.00000000   -0.00128143
     atom    6 type  1   force =     0.00000000    0.00000000   -0.00128135
     atom    7 type  1   force =     0.00000000    0.00000000    0.00552585
     atom    8 type  1   force =     0.00000000    0.00000000    0.00552585

     Total force =     0.011345     Total SCF correction =     0.001233
     SCF correction compared to forces is large: reduce conv_thr to get better values


     entering subroutine stress ...

          total   stress  (Ry/bohr**3)                   (kbar)     P=  -10.54
  -0.00012456   0.00000000   0.00000000        -18.32      0.00      0.00
   0.00000000  -0.00012456   0.00000000          0.00    -18.32      0.00
   0.00000000   0.00000000   0.00003421          0.00      0.00      5.03


     BFGS Geometry Optimization

     number of scf cycles    =   1
     number of bfgs steps    =   0

     energy   new            =     -99.5796033322 Ry

     new trust radius        =       0.0055258516 bohr
     new conv_thr            =       0.0000010000 Ry


ATOMIC_POSITIONS (crystal)
Al       0.000000000   0.000000000  -0.000145317
Al       0.500000000   0.500000000  -0.000145320
Al       0.500000000   0.000000000   0.100033696
Al       0.000000000   0.500000000   0.100033696
Al       0.000000000   0.000000000   0.199966300
Al       0.500000000   0.500000000   0.199966302
Al       0.500000000   0.000000000   0.300145322
Al       0.000000000   0.500000000   0.300145322



     Writing output data file Al_100_2_3.save
     NEW-OLD atomic charge density approx. for the potential

     total cpu time spent up to now is      271.3 secs

     per-process dynamical memory:   114.5 Mb

     Self-consistent Calculation

     iteration #  1     ecut=    30.00 Ry     beta=0.30
     Davidson diagonalization with overlap
     ethr =  1.00E-06,  avg # of iterations =  2.0

     total cpu time spent up to now is      289.7 secs

     total energy              =     -99.57972774 Ry
     Harris-Foulkes estimate   =     -99.57972978 Ry
     estimated scf accuracy    <       0.00003492 Ry

     iteration #  2     ecut=    30.00 Ry     beta=0.30
     Davidson diagonalization with overlap
     ethr =  1.46E-07,  avg # of iterations =  1.4

     total cpu time spent up to now is      303.2 secs

     total energy              =     -99.57972339 Ry
     Harris-Foulkes estimate   =     -99.57972882 Ry
     estimated scf accuracy    <       0.00002150 Ry

     iteration #  3     ecut=    30.00 Ry     beta=0.30
     Davidson diagonalization with overlap
     ethr =  8.96E-08,  avg # of iterations =  2.0

     total cpu time spent up to now is      318.9 secs

     total energy              =     -99.57972668 Ry
     Harris-Foulkes estimate   =     -99.57972708 Ry
     estimated scf accuracy    <       0.00000250 Ry

     iteration #  4     ecut=    30.00 Ry     beta=0.30
     Davidson diagonalization with overlap
     ethr =  1.04E-08,  avg # of iterations =  1.4

     total cpu time spent up to now is      333.0 secs

     End of self-consistent calculation

          k = 0.0000 0.0000 0.0000 (  6123 PWs)   bands (ev):

   -10.0756  -8.6736  -6.4944  -3.6258  -1.8200  -1.8200  -1.2982  -0.5259
    -0.5259  -0.4469  -0.4469   0.9967   0.9967   1.5102   1.5102   2.1761

          k = 0.0000 0.0625 0.0000 (  6131 PWs)   bands (ev):

   -10.0399  -8.6382  -6.4593  -3.5908  -2.3849  -1.7875  -1.2647  -1.0736
    -0.4932  -0.3869   0.1655   0.9555   1.0909   1.5429   1.5755   2.2087

          k = 0.0000 0.1250 0.0000 (  6135 PWs)   bands (ev):

    -9.9328  -8.5319  -6.3541  -3.4865  -3.2846  -1.9484  -1.6889  -1.1650
    -0.3945  -0.2823   0.1348   1.0155   1.3895   1.6410   2.3054   2.5848

          k = 0.0000 0.1875 0.0000 (  6133 PWs)   bands (ev):

    -9.7545  -8.3550  -6.1791  -4.1810  -3.3130  -2.8300  -1.5248  -0.9992
    -0.7276  -0.2305  -0.1134   1.2608   1.8043   2.0103   2.4625   2.5054

          k = 0.0000 0.2500 0.0000 (  6115 PWs)   bands (ev):

    -9.5053  -8.1077  -5.9345  -5.0299  -3.6691  -3.0706  -1.5524  -1.2948
    -0.7670  -0.0011   0.1140   1.2535   1.4990   2.0326   2.6691   2.9095

          k = 0.0000 0.3125 0.0000 (  6117 PWs)   bands (ev):

    -9.1854  -7.7903  -5.8208  -5.6207  -4.4528  -2.7602  -2.3239  -0.9997
    -0.4698   0.2870   0.2943   0.6464   1.7783   2.1539   2.3272   2.7274

          k = 0.0000 0.3750 0.0000 (  6090 PWs)   bands (ev):

    -8.7953  -7.4033  -6.5487  -5.2379  -5.1741  -3.0356  -2.3821  -0.6380
    -0.2392  -0.1071   0.6554   0.8529   1.4642   1.8627   2.3403   2.6863

          k = 0.0000 0.4375 0.0000 (  6100 PWs)   bands (ev):

    -8.3358  -7.2115  -6.9473  -5.8318  -4.7872  -3.6850  -1.9380  -0.8602
    -0.2112   0.3192   0.8399   1.0816   1.2714   1.3476   2.1309   2.2811

          k = 0.0000-0.5000 0.0000 (  6086 PWs)   bands (ev):

    -7.8076  -7.8076  -6.4232  -6.4232  -4.2691  -4.2691  -1.4296  -1.4296
     0.2814   0.2814   0.8070   0.8070   1.5737   1.5737   1.7553   1.7553

          k = 0.0625 0.0625 0.0000 (  6129 PWs)   bands (ev):

   -10.0042  -8.6028  -6.4242  -3.5561  -2.3522  -2.3522  -1.2314  -1.0315
    -1.0315   0.2253   0.2253   1.0255   1.0255   1.6237   1.6237   2.2406

          k = 0.0625 0.1250 0.0000 (  6136 PWs)   bands (ev):

    -9.8972  -8.4965  -6.3191  -3.4518  -3.2508  -2.2584  -1.9030  -1.1318
    -0.9298   0.1721   0.3338   1.1240   1.2709   1.7556   2.3342   2.6589

          k = 0.0625 0.1875 0.0000 (  6140 PWs)   bands (ev):

    -9.7189  -8.3197  -6.1441  -4.1470  -3.2784  -2.7987  -2.0787  -0.9661
    -0.7744  -0.6809   0.4996   1.2739   1.8382   2.1081   2.4736   2.5460

          k = 0.0625 0.2500 0.0000 (  6125 PWs)   bands (ev):

    -9.4697  -8.0724  -5.8996  -4.9955  -3.6356  -3.0363  -1.8476  -1.5193
    -0.7345  -0.5285   0.7058   1.2439   1.6140   2.0798   2.3232   2.8064

          k = 0.0625 0.3125 0.0000 (  6103 PWs)   bands (ev):

    -9.1499  -7.7551  -5.7861  -5.5858  -4.4184  -2.7259  -2.2901  -1.5487
    -0.4373  -0.2308   0.4675   1.1000   1.6204   1.8496   2.3172   2.7908

          k = 0.0625 0.3750 0.0000 (  6091 PWs)   bands (ev):

    -8.7599  -7.3682  -6.5139  -5.2032  -5.1397  -3.0016  -2.3482  -1.1855
    -0.1889  -0.0754   0.1321   0.9381   1.4390   1.9884   2.2020   2.2519

          k = 0.0625 0.4375 0.0000 (  6087 PWs)   bands (ev):

    -8.3005  -7.1765  -6.9123  -5.7971  -4.7526  -3.6507  -1.9047  -0.8684
    -0.7011   0.3142   0.3484   0.5565   1.4059   1.6314   1.8595   2.6232

          k = 0.0625-0.5000 0.0000 (  6102 PWs)   bands (ev):

    -7.7725  -7.7725  -6.3883  -6.3883  -4.2347  -4.2347  -1.3982  -1.3982
    -0.2451  -0.2451   0.8078   0.8078   1.1017   1.1017   2.3361   2.3361

          k = 0.1250 0.1250 0.0000 (  6133 PWs)   bands (ev):

    -9.7902  -8.3904  -6.2141  -3.3477  -3.1506  -3.1506  -1.8055  -1.8055
    -1.0324   0.2705   0.2705   1.4043   1.4043   2.4063   2.7688   2.7688

          k = 0.1250 0.1875 0.0000 (  6118 PWs)   bands (ev):

    -9.6121  -8.2136  -6.0393  -4.0444  -3.1746  -2.9933  -2.6762  -1.6384
    -0.8669  -0.5924   0.4291   1.5580   2.2312   2.2379   2.5536   2.7395

          k = 0.1250 0.2500 0.0000 (  6118 PWs)   bands (ev):

    -9.3631  -7.9666  -5.7950  -4.8923  -3.5364  -2.9329  -2.7353  -1.4427
    -1.3776  -0.6359   0.6294   1.3923   1.5074   1.8730   2.8404   2.8863

          k = 0.1250 0.3125 0.0000 (  6109 PWs)   bands (ev):

    -9.0435  -7.6495  -5.6822  -5.4815  -4.3158  -2.6234  -2.4349  -2.1890
    -1.1003  -0.3403   0.5294   0.7664   1.0758   2.0941   2.1381   2.6998

          k = 0.1250 0.3750 0.0000 (  6081 PWs)   bands (ev):

    -8.6538  -7.2629  -6.4094  -5.0992  -5.0361  -2.8994  -2.2467  -2.0663
    -0.7333  -0.0964   0.0179   0.0776   1.3777   1.4097   2.0953   2.4911

          k = 0.1250 0.4375 0.0000 (  6083 PWs)   bands (ev):

    -8.1948  -7.0716  -6.8074  -5.6931  -4.6489  -3.5480  -1.8059  -1.6340
    -0.7146  -0.5497  -0.3023   0.4126   0.8143   1.5018   1.7935   2.8195

          k = 0.1250-0.5000 0.0000 (  6074 PWs)   bands (ev):

    -7.6670  -7.6670  -6.2836  -6.2836  -4.1313  -4.1313  -1.3290  -1.3290
    -1.0856  -1.0856   0.1861   0.1861   0.9658   0.9658   2.2785   2.2786

          k = 0.1875 0.1875 0.0000 (  6117 PWs)   bands (ev):

    -9.4342  -8.0371  -5.8648  -3.8752  -3.8752  -3.0021  -2.5176  -2.5176
    -0.7023  -0.4291  -0.4291   1.4584   2.3093   2.3093   2.7952   2.8188

          k = 0.1875 0.2500 0.0000 (  6108 PWs)   bands (ev):

    -9.1855  -7.7903  -5.6207  -4.7205  -3.6499  -3.3420  -2.7611  -2.2822
    -1.2507  -0.4728  -0.2049   0.6592   1.5604   1.9917   2.5155   3.0283

          k = 0.1875 0.3125 0.0000 (  6091 PWs)   bands (ev):

    -8.8663  -7.4736  -5.5091  -5.3075  -4.1473  -3.3195  -2.4527  -2.0307
    -1.9668  -0.1813  -0.0934   0.0572   0.8602   1.2447   2.5838   3.1360

          k = 0.1875 0.3750 0.0000 (  6080 PWs)   bands (ev):

    -8.4771  -7.0875  -6.2355  -4.9258  -4.8644  -2.9494  -2.7298  -2.0792
    -1.6071  -0.7873   0.0014   0.1474   0.5845   0.5924   2.1986   2.5934

          k = 0.1875 0.4375 0.0000 (  6078 PWs)   bands (ev):

    -8.0186  -6.8968  -6.6326  -5.5198  -4.4763  -3.3770  -2.5110  -1.6646
    -1.3955  -1.1710  -0.5637  -0.1171   0.6419   0.9564   1.6444   1.9887

          k = 0.1875-0.5000 0.0000 (  6098 PWs)   bands (ev):

    -7.4915  -7.4915  -6.1097  -6.1097  -3.9597  -3.9597  -2.0096  -2.0096
    -1.1188  -1.1188  -0.6717  -0.6717   1.1120   1.1120   1.4379   1.4379

          k = 0.2500 0.2500 0.0000 (  6089 PWs)   bands (ev):

    -8.9371  -7.5439  -5.3770  -4.4816  -4.4816  -3.1167  -3.1167  -2.5214
    -1.0198  -1.0198  -0.2475  -0.1528   1.1872   1.7717   1.7717   3.0758

          k = 0.2500 0.3125 0.0000 (  6094 PWs)   bands (ev):

    -8.6185  -7.2278  -5.2674  -5.0646  -4.1870  -3.8827  -2.8120  -2.2163
    -1.7848  -0.9110  -0.7280   0.0143   0.4639   1.0520   2.0117   2.4746

          k = 0.2500 0.3750 0.0000 (  6088 PWs)   bands (ev):

    -8.2300  -6.8424  -5.9922  -4.6837  -4.6262  -3.7857  -2.4965  -2.4348
    -1.8669  -1.5886  -0.4012  -0.3062   0.4085   0.4458   1.8065   2.1303

          k = 0.2500 0.4375 0.0000 (  6088 PWs)   bands (ev):

    -7.7723  -6.6525  -6.3883  -5.2780  -4.2349  -3.3459  -3.1382  -2.2676
    -1.9990  -1.3905  -0.9268  -0.4017   0.2130   0.8495   1.1904   1.8057

          k = 0.2500-0.5000 0.0000 (  6098 PWs)   bands (ev):

    -7.2461  -7.2461  -5.8664  -5.8664  -3.7194  -3.7194  -2.8382  -2.8382
    -1.4945  -1.4945  -0.9015  -0.9015   0.6424   0.6424   1.3164   1.3164

          k = 0.3125 0.3125 0.0000 (  6098 PWs)   bands (ev):

    -8.3006  -6.9124  -4.9581  -4.9581  -4.7528  -3.5887  -3.5887  -1.9344
    -1.6536  -1.4855  -1.4855  -0.3700   0.3799   1.3221   1.3221   1.7445

          k = 0.3125 0.3750 0.0000 (  6092 PWs)   bands (ev):

    -7.9129  -6.5280  -5.6802  -4.5934  -4.3731  -4.2921  -3.2145  -2.3980
    -2.1889  -1.5271  -1.1259  -1.0562   0.6607   0.7177   1.0642   1.6242

          k = 0.3125 0.4375 0.0000 (  6088 PWs)   bands (ev):

    -7.4562  -6.3390  -6.0749  -4.9700  -4.1231  -3.9256  -3.0367  -2.8329
    -2.7714  -1.6911  -1.1052  -0.7326   0.0803   0.4508   1.1191   1.8034

          k = 0.3125-0.5000 0.0000 (  6082 PWs)   bands (ev):

    -6.9313  -6.9313  -5.5547  -5.5547  -3.6136  -3.6136  -3.4116  -3.4116
    -2.2639  -2.2639  -0.6722  -0.6722  -0.0445  -0.0445   1.5426   1.5426

          k = 0.3750 0.3750 0.0000 (  6086 PWs)   bands (ev):

    -7.5263  -6.1446  -5.3009  -5.3009  -3.9945  -3.9286  -3.9286  -3.1030
    -1.8208  -1.8208  -1.7569  -1.1733   0.3866   0.9959   0.9959   1.0531

          k = 0.3750 0.4375 0.0000 (  6079 PWs)   bands (ev):

    -7.0709  -5.9568  -5.6934  -4.8661  -4.5666  -3.7481  -3.5486  -3.4852
    -2.4595  -2.3972  -1.3931  -0.8077  -0.1741   0.3970   1.3636   1.4109

          k = 0.3750-0.5000 0.0000 (  6084 PWs)   bands (ev):

    -6.5474  -6.5474  -5.1769  -5.1769  -4.3264  -4.3264  -3.0365  -3.0365
    -2.9737  -2.9737  -0.9328  -0.9328  -0.1183  -0.1183   1.6064   1.6064

          k = 0.4375 0.4375 0.0000 (  6100 PWs)   bands (ev):

    -6.6171  -5.5077  -5.5077  -5.2460  -4.3947  -4.1336  -4.1336  -3.1049
    -3.0412  -2.0231  -2.0231  -0.9995  -0.1848   0.7986   0.7986   1.5409

          k = 0.4375-0.5000 0.0000 (  6110 PWs)   bands (ev):

    -6.0956  -6.0956  -5.0030  -5.0030  -4.7045  -4.7045  -3.6210  -3.6210
    -2.5956  -2.5956  -1.5272  -1.5272   0.2641   0.2641   1.2325   1.2325

          k =-0.5000-0.5000 0.0000 (  6124 PWs)   bands (ev):

    -5.5765  -5.5765  -5.5765  -5.5765  -4.2019  -4.2019  -4.2019  -4.2019
    -2.0909  -2.0909  -2.0909  -2.0909   0.7321   0.7321   0.7321   0.7321

     the Fermi energy is     0.6732 ev

!    total energy              =     -99.57972648 Ry
     Harris-Foulkes estimate   =     -99.57972684 Ry
     estimated scf accuracy    <       0.00000047 Ry

     The total energy is the sum of the following terms:

     one-electron contribution =    -261.43846683 Ry
     hartree contribution      =     136.25866066 Ry
     xc contribution           =     -79.83889352 Ry
     ewald contribution        =     105.43876611 Ry
     smearing contrib. (-TS)   =       0.00020710 Ry

     convergence has been achieved in   4 iterations

     Forces acting on atoms (Ry/au):

     atom    1 type  1   force =     0.00000000    0.00000000   -0.00514578
     atom    2 type  1   force =     0.00000000    0.00000000   -0.00514582
     atom    3 type  1   force =     0.00000000    0.00000000    0.00080579
     atom    4 type  1   force =     0.00000000    0.00000000    0.00080579
     atom    5 type  1   force =     0.00000000    0.00000000   -0.00080598
     atom    6 type  1   force =     0.00000000    0.00000000   -0.00080599
     atom    7 type  1   force =     0.00000000    0.00000000    0.00514599
     atom    8 type  1   force =     0.00000000    0.00000000    0.00514599

     Total force =     0.010417     Total SCF correction =     0.000791


     entering subroutine stress ...

          total   stress  (Ry/bohr**3)                   (kbar)     P=  -10.72
  -0.00012550   0.00000000   0.00000000        -18.46      0.00      0.00
   0.00000000  -0.00012550   0.00000000          0.00    -18.46      0.00
   0.00000000   0.00000000   0.00003231          0.00      0.00      4.75


     number of scf cycles    =   2
     number of bfgs steps    =   1

     energy   old            =     -99.5796033322 Ry
     energy   new            =     -99.5797264839 Ry

     CASE: energy  _new < energy  _old


     WARNING: bfgs curvature condition failed, Theta= 0.874
     new trust radius        =       0.0082887775 bohr
     new conv_thr            =       0.0000000123 Ry


ATOMIC_POSITIONS (crystal)
Al       0.000000000   0.000000000  -0.000363291
Al       0.500000000   0.500000000  -0.000363296
Al       0.500000000   0.000000000   0.100072132
Al       0.000000000   0.500000000   0.100072132
Al       0.000000000   0.000000000   0.199927857
Al       0.500000000   0.500000000   0.199927859
Al       0.500000000   0.000000000   0.300363304
Al       0.000000000   0.500000000   0.300363304



     Writing output data file Al_100_2_3.save
     NEW-OLD atomic charge density approx. for the potential

     total cpu time spent up to now is      339.7 secs

     per-process dynamical memory:   114.5 Mb

     Self-consistent Calculation

     iteration #  1     ecut=    30.00 Ry     beta=0.30
     Davidson diagonalization with overlap
     ethr =  1.00E-06,  avg # of iterations =  2.8

     Threshold (ethr) on eigenvalues was too large:
     Diagonalizing with lowered threshold

     Davidson diagonalization with overlap
     ethr =  6.96E-08,  avg # of iterations =  2.3

     total cpu time spent up to now is      374.1 secs

     total energy              =     -99.57989214 Ry
     Harris-Foulkes estimate   =     -99.57989349 Ry
     estimated scf accuracy    <       0.00001402 Ry

     iteration #  2     ecut=    30.00 Ry     beta=0.30
     Davidson diagonalization with overlap
     ethr =  5.84E-08,  avg # of iterations =  1.0

     total cpu time spent up to now is      387.9 secs

     total energy              =     -99.57988938 Ry
     Harris-Foulkes estimate   =     -99.57989233 Ry
     estimated scf accuracy    <       0.00000814 Ry

     iteration #  3     ecut=    30.00 Ry     beta=0.30
     Davidson diagonalization with overlap
     ethr =  3.39E-08,  avg # of iterations =  2.4

     total cpu time spent up to now is      404.1 secs

     total energy              =     -99.57989084 Ry
     Harris-Foulkes estimate   =     -99.57989091 Ry
     estimated scf accuracy    <       0.00000029 Ry

     iteration #  4     ecut=    30.00 Ry     beta=0.30
     Davidson diagonalization with overlap
     ethr =  1.19E-09,  avg # of iterations =  2.5

     total cpu time spent up to now is      422.1 secs

     total energy              =     -99.57989089 Ry
     Harris-Foulkes estimate   =     -99.57989090 Ry
     estimated scf accuracy    <       0.00000008 Ry

     iteration #  5     ecut=    30.00 Ry     beta=0.30
     Davidson diagonalization with overlap
     ethr =  3.23E-10,  avg # of iterations =  2.8

     total cpu time spent up to now is      440.5 secs

     total energy              =     -99.57989083 Ry
     Harris-Foulkes estimate   =     -99.57989094 Ry
     estimated scf accuracy    <       0.00000051 Ry

     iteration #  6     ecut=    30.00 Ry     beta=0.30
     Davidson diagonalization with overlap
     ethr =  3.23E-10,  avg # of iterations =  2.5

     total cpu time spent up to now is      459.3 secs

     total energy              =     -99.57989087 Ry
     Harris-Foulkes estimate   =     -99.57989088 Ry
     estimated scf accuracy    <       0.00000006 Ry

     iteration #  7     ecut=    30.00 Ry     beta=0.30
     Davidson diagonalization with overlap
     ethr =  2.39E-10,  avg # of iterations =  2.4

     total cpu time spent up to now is      475.3 secs

     total energy              =     -99.57989087 Ry
     Harris-Foulkes estimate   =     -99.57989089 Ry
     estimated scf accuracy    <       0.00000005 Ry

     iteration #  8     ecut=    30.00 Ry     beta=0.30
     Davidson diagonalization with overlap
     ethr =  2.20E-10,  avg # of iterations =  1.5

     total cpu time spent up to now is      488.7 secs

     End of self-consistent calculation

          k = 0.0000 0.0000 0.0000 (  6123 PWs)   bands (ev):

   -10.0654  -8.6586  -6.4931  -3.6276  -1.8095  -1.8095  -1.3006  -0.5093
    -0.5093  -0.4367  -0.4367   1.0109   1.0109   1.5113   1.5113   2.1694

          k = 0.0000 0.0625 0.0000 (  6131 PWs)   bands (ev):

   -10.0297  -8.6232  -6.4580  -3.5927  -2.3745  -1.7769  -1.2671  -1.0576
    -0.4765  -0.3765   0.1760   0.9621   1.0994   1.5440   1.5904   2.2020

          k = 0.0000 0.1250 0.0000 (  6135 PWs)   bands (ev):

    -9.9227  -8.5170  -6.3528  -3.4883  -3.2743  -1.9328  -1.6784  -1.1674
    -0.3778  -0.2720   0.1368   1.0279   1.4008   1.6421   2.2988   2.5971

          k = 0.0000 0.1875 0.0000 (  6133 PWs)   bands (ev):

    -9.7443  -8.3400  -6.1778  -4.1708  -3.3148  -2.8146  -1.5142  -1.0016
    -0.7258  -0.2137  -0.1032   1.2744   1.8054   2.0088   2.4562   2.5158

          k = 0.0000 0.2500 0.0000 (  6115 PWs)   bands (ev):

    -9.4951  -8.0927  -5.9332  -5.0196  -3.6538  -3.0724  -1.5507  -1.2842
    -0.7694   0.0156   0.1243   1.2518   1.5126   2.0337   2.6636   2.9202

          k = 0.0000 0.3125 0.0000 (  6117 PWs)   bands (ev):

    -9.1752  -7.7753  -5.8106  -5.6194  -4.4375  -2.7620  -2.3224  -0.9891
    -0.4721   0.2934   0.3110   0.6485   1.7912   2.1646   2.3283   2.7272

          k = 0.0000 0.3750 0.0000 (  6090 PWs)   bands (ev):

    -8.7851  -7.3882  -6.5385  -5.2366  -5.1589  -3.0341  -2.3838  -0.6274
    -0.2399  -0.1093   0.6722   0.8621   1.4748   1.8650   2.3504   2.6874

          k = 0.0000 0.4375 0.0000 (  6100 PWs)   bands (ev):

    -8.3256  -7.2013  -6.9323  -5.8167  -4.7858  -3.6836  -1.9396  -0.8615
    -0.2006   0.3171   0.8505   1.0985   1.2812   1.3460   2.1478   2.2909

          k = 0.0000-0.5000 0.0000 (  6086 PWs)   bands (ev):

    -7.7974  -7.7974  -6.4081  -6.4081  -4.2677  -4.2677  -1.4311  -1.4311
     0.2920   0.2920   0.8051   0.8051   1.5905   1.5905   1.7652   1.7652

          k = 0.0625 0.0625 0.0000 (  6129 PWs)   bands (ev):

    -9.9940  -8.5878  -6.4229  -3.5579  -2.3417  -2.3417  -1.2339  -1.0154
    -1.0154   0.2357   0.2357   1.0272   1.0272   1.6379   1.6379   2.2340

          k = 0.0625 0.1250 0.0000 (  6136 PWs)   bands (ev):

    -9.8870  -8.4816  -6.3178  -3.4536  -3.2405  -2.2479  -1.8875  -1.1342
    -0.9137   0.1738   0.3442   1.1254   1.2816   1.7695   2.3277   2.6735

          k = 0.0625 0.1875 0.0000 (  6140 PWs)   bands (ev):

    -9.7087  -8.3047  -6.1428  -4.1367  -3.2802  -2.7832  -2.0682  -0.9685
    -0.7596  -0.6779   0.5100   1.2751   1.8524   2.1067   2.4683   2.5565

          k = 0.0625 0.2500 0.0000 (  6125 PWs)   bands (ev):

    -9.4595  -8.0574  -5.8983  -4.9853  -3.6203  -3.0381  -1.8372  -1.5176
    -0.7368  -0.5125   0.7159   1.2429   1.6149   2.0939   2.3318   2.8020

          k = 0.0625 0.3125 0.0000 (  6103 PWs)   bands (ev):

    -9.1397  -7.7401  -5.7759  -5.5845  -4.4032  -2.7276  -2.2885  -1.5382
    -0.4396  -0.2148   0.4674   1.1086   1.6308   1.8510   2.3283   2.7932

          k = 0.0625 0.3750 0.0000 (  6091 PWs)   bands (ev):

    -8.7497  -7.3531  -6.5037  -5.2019  -5.1245  -3.0001  -2.3498  -1.1750
    -0.1901  -0.0776   0.1482   0.9486   1.4488   1.9876   2.2034   2.2683

          k = 0.0625 0.4375 0.0000 (  6087 PWs)   bands (ev):

    -8.2903  -7.1663  -6.8973  -5.7820  -4.7512  -3.6492  -1.9063  -0.8661
    -0.6944   0.3246   0.3464   0.5723   1.4046   1.6477   1.8695   2.6246

          k = 0.0625-0.5000 0.0000 (  6102 PWs)   bands (ev):

    -7.7623  -7.7623  -6.3732  -6.3732  -4.2333  -4.2333  -1.3996  -1.3996
    -0.2348  -0.2348   0.8079   0.8079   1.1161   1.1161   2.3462   2.3462

          k = 0.1250 0.1250 0.0000 (  6133 PWs)   bands (ev):

    -9.7800  -8.3754  -6.2128  -3.3495  -3.1403  -3.1403  -1.7899  -1.7899
    -1.0348   0.2720   0.2720   1.4147   1.4147   2.4010   2.7835   2.7835

          k = 0.1250 0.1875 0.0000 (  6118 PWs)   bands (ev):

    -9.6019  -8.1987  -6.0380  -4.0341  -3.1764  -2.9827  -2.6609  -1.6227
    -0.8693  -0.5909   0.4306   1.5681   2.2301   2.2453   2.5641   2.7358

          k = 0.1250 0.2500 0.0000 (  6118 PWs)   bands (ev):

    -9.3529  -7.9516  -5.7937  -4.8821  -3.5211  -2.9347  -2.7249  -1.4351
    -1.3679  -0.6383   0.6308   1.3928   1.5178   1.8816   2.8566   2.8795

          k = 0.1250 0.3125 0.0000 (  6109 PWs)   bands (ev):

    -9.0333  -7.6345  -5.6719  -5.4802  -4.3005  -2.6251  -2.4245  -2.1874
    -1.0847  -0.3425   0.5286   0.7768   1.0769   2.1103   2.1481   2.6999

          k = 0.1250 0.3750 0.0000 (  6081 PWs)   bands (ev):

    -8.6436  -7.2478  -6.3992  -5.0978  -5.0210  -2.8979  -2.2483  -2.0559
    -0.7177  -0.0978   0.0158   0.0880   1.3792   1.4257   2.0942   2.5013

          k = 0.1250 0.4375 0.0000 (  6083 PWs)   bands (ev):

    -8.1846  -7.0613  -6.7923  -5.6780  -4.6475  -3.5466  -1.8074  -1.6235
    -0.7162  -0.5395  -0.2866   0.4122   0.8286   1.5004   1.7950   2.8211

          k = 0.1250-0.5000 0.0000 (  6074 PWs)   bands (ev):

    -7.6568  -7.6568  -6.2686  -6.2686  -4.1299  -4.1299  -1.3282  -1.3282
    -1.0776  -1.0776   0.2014   0.2014   0.9646   0.9646   2.2801   2.2801

          k = 0.1875 0.1875 0.0000 (  6117 PWs)   bands (ev):

    -9.4240  -8.0221  -5.8635  -3.8649  -3.8649  -3.0038  -2.5021  -2.5021
    -0.7046  -0.4276  -0.4276   1.4687   2.3096   2.3096   2.8114   2.8279

          k = 0.1875 0.2500 0.0000 (  6108 PWs)   bands (ev):

    -9.1753  -7.7753  -5.6194  -4.7102  -3.6393  -3.3269  -2.7628  -2.2667
    -1.2492  -0.4751  -0.2034   0.6696   1.5594   2.0078   2.5152   3.0384

          k = 0.1875 0.3125 0.0000 (  6091 PWs)   bands (ev):

    -8.8561  -7.4586  -5.4988  -5.3062  -4.1320  -3.3092  -2.4544  -2.0262
    -1.9544  -0.1835  -0.0831   0.0584   0.8592   1.2606   2.5844   3.1350

          k = 0.1875 0.3750 0.0000 (  6080 PWs)   bands (ev):

    -8.4669  -7.0724  -6.2253  -4.9244  -4.8492  -2.9390  -2.7282  -2.0807
    -1.5916  -0.7770   0.0004   0.1468   0.5936   0.5988   2.1982   2.5951

          k = 0.1875 0.4375 0.0000 (  6078 PWs)   bands (ev):

    -8.0084  -6.8866  -6.6175  -5.5047  -4.4749  -3.3755  -2.5006  -1.6642
    -1.3872  -1.1555  -0.5653  -0.1021   0.6407   0.9580   1.6432   1.9904

          k = 0.1875-0.5000 0.0000 (  6098 PWs)   bands (ev):

    -7.4813  -7.4813  -6.0946  -6.0946  -3.9582  -3.9582  -1.9991  -1.9991
    -1.1204  -1.1204  -0.6562  -0.6562   1.1104   1.1104   1.4395   1.4395

          k = 0.2500 0.2500 0.0000 (  6089 PWs)   bands (ev):

    -8.9269  -7.5289  -5.3757  -4.4713  -4.4713  -3.1014  -3.1014  -2.5231
    -1.0183  -1.0183  -0.2496  -0.1424   1.2030   1.7708   1.7708   3.0747

          k = 0.2500 0.3125 0.0000 (  6094 PWs)   bands (ev):

    -8.6083  -7.2128  -5.2571  -5.0633  -4.1764  -3.8677  -2.7966  -2.2179
    -1.7833  -0.9008  -0.7265   0.0136   0.4782   1.0509   2.0113   2.4763

          k = 0.2500 0.3750 0.0000 (  6088 PWs)   bands (ev):

    -8.2198  -6.8274  -5.9820  -4.6823  -4.6110  -3.7754  -2.4936  -2.4208
    -1.8667  -1.5801  -0.4000  -0.2914   0.4074   0.4446   1.8082   2.1309

          k = 0.2500 0.4375 0.0000 (  6088 PWs)   bands (ev):

    -7.7621  -6.6422  -6.3732  -5.2628  -4.2335  -3.3356  -3.1367  -2.2572
    -1.9836  -1.3922  -0.9114  -0.4029   0.2142   0.8479   1.1921   1.8052

          k = 0.2500-0.5000 0.0000 (  6098 PWs)   bands (ev):

    -7.2359  -7.2359  -5.8513  -5.8513  -3.7180  -3.7180  -2.8278  -2.8278
    -1.4790  -1.4790  -0.9031  -0.9031   0.6440   0.6440   1.3151   1.3151

          k = 0.3125 0.3125 0.0000 (  6098 PWs)   bands (ev):

    -8.2904  -6.8974  -4.9478  -4.9478  -4.7514  -3.5735  -3.5735  -1.9342
    -1.6451  -1.4840  -1.4840  -0.3552   0.3788   1.3211   1.3211   1.7462

          k = 0.3125 0.3750 0.0000 (  6092 PWs)   bands (ev):

    -7.9027  -6.5130  -5.6700  -4.5828  -4.3717  -4.2772  -3.1992  -2.3876
    -2.1874  -1.5288  -1.1245  -1.0408   0.6595   0.7161   1.0659   1.6239

          k = 0.3125 0.4375 0.0000 (  6088 PWs)   bands (ev):

    -7.4460  -6.3287  -6.0599  -4.9549  -4.1128  -3.9241  -3.0263  -2.8310
    -2.7566  -1.6757  -1.1068  -0.7314   0.0793   0.4525   1.1177   1.8040

          k = 0.3125-0.5000 0.0000 (  6082 PWs)   bands (ev):

    -6.9210  -6.9210  -5.5396  -5.5396  -3.6033  -3.6033  -3.4101  -3.4101
    -2.2486  -2.2486  -0.6733  -0.6733  -0.0433  -0.0433   1.5420   1.5420

          k = 0.3750 0.3750 0.0000 (  6086 PWs)   bands (ev):

    -7.5161  -6.1295  -5.2907  -5.2907  -3.9931  -3.9134  -3.9134  -3.0927
    -1.8193  -1.8193  -1.7415  -1.1750   0.3883   0.9949   0.9949   1.0518

          k = 0.3750 0.4375 0.0000 (  6079 PWs)   bands (ev):

    -7.0607  -5.9466  -5.6783  -4.8555  -4.5518  -3.7378  -3.5472  -3.4699
    -2.4581  -2.3819  -1.3917  -0.8089  -0.1728   0.3958   1.3632   1.4103

          k = 0.3750-0.5000 0.0000 (  6084 PWs)   bands (ev):

    -6.5372  -6.5372  -5.1618  -5.1618  -4.3161  -4.3161  -3.0349  -3.0349
    -2.9585  -2.9585  -0.9316  -0.9316  -0.1193  -0.1193   1.6070   1.6070

          k = 0.4375 0.4375 0.0000 (  6100 PWs)   bands (ev):

    -6.6068  -5.4974  -5.4974  -5.2309  -4.3843  -4.1184  -4.1184  -3.1034
    -3.0260  -2.0216  -2.0216  -0.9984  -0.1858   0.7977   0.7977   1.5415

          k = 0.4375-0.5000 0.0000 (  6110 PWs)   bands (ev):

    -6.0853  -6.0853  -4.9924  -4.9924  -4.6896  -4.6896  -3.6057  -3.6057
    -2.5941  -2.5941  -1.5258  -1.5258   0.2629   0.2629   1.2321   1.2321

          k =-0.5000-0.5000 0.0000 (  6124 PWs)   bands (ev):

    -5.5663  -5.5663  -5.5663  -5.5663  -4.1867  -4.1867  -4.1867  -4.1867
    -2.0894  -2.0894  -2.0894  -2.0894   0.7312   0.7312   0.7312   0.7312

     the Fermi energy is     0.6774 ev

!    total energy              =     -99.57989088 Ry
     Harris-Foulkes estimate   =     -99.57989088 Ry
     estimated scf accuracy    <          4.1E-09 Ry

     The total energy is the sum of the following terms:

     one-electron contribution =    -261.02678993 Ry
     hartree contribution      =     136.05692229 Ry
     xc contribution           =     -79.83456593 Ry
     ewald contribution        =     105.22433062 Ry
     smearing contrib. (-TS)   =       0.00021207 Ry

     convergence has been achieved in   8 iterations

     Forces acting on atoms (Ry/au):

     atom    1 type  1   force =     0.00000000    0.00000000   -0.00459367
     atom    2 type  1   force =     0.00000000    0.00000000   -0.00459367
     atom    3 type  1   force =     0.00000000    0.00000000    0.00018908
     atom    4 type  1   force =     0.00000000    0.00000000    0.00018908
     atom    5 type  1   force =     0.00000000    0.00000000   -0.00018904
     atom    6 type  1   force =     0.00000000    0.00000000   -0.00018905
     atom    7 type  1   force =     0.00000000    0.00000000    0.00459364
     atom    8 type  1   force =     0.00000000    0.00000000    0.00459364

     Total force =     0.009195     Total SCF correction =     0.000092


     entering subroutine stress ...

          total   stress  (Ry/bohr**3)                   (kbar)     P=  -11.03
  -0.00012689   0.00000000   0.00000000        -18.67      0.00      0.00
   0.00000000  -0.00012689   0.00000000          0.00    -18.67      0.00
   0.00000000   0.00000000   0.00002889          0.00      0.00      4.25


     number of scf cycles    =   3
     number of bfgs steps    =   2

     energy   old            =     -99.5797264839 Ry
     energy   new            =     -99.5798908765 Ry

     CASE: energy  _new < energy  _old

     new trust radius        =       0.0124331662 bohr
     new conv_thr            =       0.0000000164 Ry


ATOMIC_POSITIONS (crystal)
Al       0.000000000   0.000000000  -0.000690262
Al       0.500000000   0.500000000  -0.000690269
Al       0.500000000   0.000000000   0.100108092
Al       0.000000000   0.500000000   0.100108092
Al       0.000000000   0.000000000   0.199891894
Al       0.500000000   0.500000000   0.199891897
Al       0.500000000   0.000000000   0.300690277
Al       0.000000000   0.500000000   0.300690277



     Writing output data file Al_100_2_3.save
     NEW-OLD atomic charge density approx. for the potential

     negative rho (up, down):  3.068E-08 0.000E+00

     total cpu time spent up to now is      495.5 secs

     per-process dynamical memory:   114.5 Mb

     Self-consistent Calculation

     iteration #  1     ecut=    30.00 Ry     beta=0.30
     Davidson diagonalization with overlap
     ethr =  1.00E-06,  avg # of iterations =  3.1

     total cpu time spent up to now is      518.6 secs

     total energy              =     -99.58010109 Ry
     Harris-Foulkes estimate   =     -99.58010355 Ry
     estimated scf accuracy    <       0.00002530 Ry

     iteration #  2     ecut=    30.00 Ry     beta=0.30
     Davidson diagonalization with overlap
     ethr =  1.05E-07,  avg # of iterations =  1.1

     negative rho (up, down):  4.542E-08 0.000E+00

     total cpu time spent up to now is      532.9 secs

     total energy              =     -99.58009568 Ry
     Harris-Foulkes estimate   =     -99.58010192 Ry
     estimated scf accuracy    <       0.00001605 Ry

     iteration #  3     ecut=    30.00 Ry     beta=0.30
     Davidson diagonalization with overlap
     ethr =  6.69E-08,  avg # of iterations =  2.0

     total cpu time spent up to now is      549.4 secs

     total energy              =     -99.58009915 Ry
     Harris-Foulkes estimate   =     -99.58009951 Ry
     estimated scf accuracy    <       0.00000216 Ry

     iteration #  4     ecut=    30.00 Ry     beta=0.30
     Davidson diagonalization with overlap
     ethr =  8.99E-09,  avg # of iterations =  1.7

     total cpu time spent up to now is      563.8 secs

     total energy              =     -99.58009922 Ry
     Harris-Foulkes estimate   =     -99.58009928 Ry
     estimated scf accuracy    <       0.00000058 Ry

     iteration #  5     ecut=    30.00 Ry     beta=0.30
     Davidson diagonalization with overlap
     ethr =  2.43E-09,  avg # of iterations =  1.9

     total cpu time spent up to now is      578.4 secs

     total energy              =     -99.58009925 Ry
     Harris-Foulkes estimate   =     -99.58009925 Ry
     estimated scf accuracy    <       0.00000007 Ry

     iteration #  6     ecut=    30.00 Ry     beta=0.30
     Davidson diagonalization with overlap
     ethr =  3.03E-10,  avg # of iterations =  3.0

     total cpu time spent up to now is      596.3 secs

     total energy              =     -99.58009927 Ry
     Harris-Foulkes estimate   =     -99.58009927 Ry
     estimated scf accuracy    <       0.00000005 Ry

     iteration #  7     ecut=    30.00 Ry     beta=0.30
     Davidson diagonalization with overlap
     ethr =  2.10E-10,  avg # of iterations =  1.0

     total cpu time spent up to now is      609.9 secs

     total energy              =     -99.58009926 Ry
     Harris-Foulkes estimate   =     -99.58009927 Ry
     estimated scf accuracy    <       0.00000006 Ry

     iteration #  8     ecut=    30.00 Ry     beta=0.30
     Davidson diagonalization with overlap
     ethr =  2.10E-10,  avg # of iterations =  1.6

     total cpu time spent up to now is      623.4 secs

     End of self-consistent calculation

          k = 0.0000 0.0000 0.0000 (  6123 PWs)   bands (ev):

   -10.0529  -8.6409  -6.4945  -3.6340  -1.7964  -1.7964  -1.3076  -0.4891
    -0.4891  -0.4240  -0.4240   1.0276   1.0276   1.5099   1.5099   2.1559

          k = 0.0000 0.0625 0.0000 (  6131 PWs)   bands (ev):

   -10.0172  -8.6054  -6.4593  -3.5991  -2.3616  -1.7639  -1.2742  -1.0384
    -0.4564  -0.3638   0.1891   0.9675   1.1091   1.5427   1.6081   2.1886

          k = 0.0000 0.1250 0.0000 (  6135 PWs)   bands (ev):

    -9.9102  -8.4992  -6.3542  -3.4947  -3.2615  -1.9140  -1.6653  -1.1744
    -0.3577  -0.2594   0.1366   1.0428   1.4142   1.6407   2.2855   2.6102

          k = 0.0000 0.1875 0.0000 (  6133 PWs)   bands (ev):

    -9.7318  -8.3222  -6.1791  -4.1581  -3.3212  -2.7961  -1.5011  -1.0085
    -0.7265  -0.1936  -0.0905   1.2904   1.8040   2.0028   2.4434   2.5286

          k = 0.0000 0.2500 0.0000 (  6115 PWs)   bands (ev):

    -9.4826  -8.0749  -5.9345  -5.0070  -3.6355  -3.0787  -1.5515  -1.2712
    -0.7762   0.0358   0.1370   1.2455   1.5285   2.0323   2.6519   2.9335

          k = 0.0000 0.3125 0.0000 (  6117 PWs)   bands (ev):

    -9.1627  -7.7575  -5.7980  -5.6206  -4.4194  -2.7682  -2.3233  -0.9760
    -0.4789   0.2996   0.3312   0.6487   1.8060   2.1778   2.3268   2.7234

          k = 0.0000 0.3750 0.0000 (  6090 PWs)   bands (ev):

    -8.7726  -7.3704  -6.5259  -5.2378  -5.1409  -3.0351  -2.3900  -0.6143
    -0.2447  -0.1159   0.6924   0.8732   1.4881   1.8646   2.3616   2.6859

          k = 0.0000 0.4375 0.0000 (  6100 PWs)   bands (ev):

    -8.3131  -7.1888  -6.9144  -5.7987  -4.7870  -3.6847  -1.9457  -0.8672
    -0.1874   0.3106   0.8637   1.1188   1.2930   1.3403   2.1682   2.3029

          k = 0.0000-0.5000 0.0000 (  6086 PWs)   bands (ev):

    -7.7849  -7.7849  -6.3902  -6.3902  -4.2688  -4.2688  -1.4370  -1.4370
     0.3052   0.3052   0.7988   0.7988   1.6109   1.6109   1.7773   1.7773

          k = 0.0625 0.0625 0.0000 (  6129 PWs)   bands (ev):

    -9.9815  -8.5700  -6.4243  -3.5643  -2.3289  -2.3289  -1.2409  -0.9962
    -0.9962   0.2486   0.2486   1.0266   1.0266   1.6547   1.6547   2.2206

          k = 0.0625 0.1250 0.0000 (  6136 PWs)   bands (ev):

    -9.8745  -8.4638  -6.3191  -3.4599  -3.2277  -2.2349  -1.8689  -1.1412
    -0.8943   0.1731   0.3570   1.1243   1.2949   1.7859   2.3147   2.6906

          k = 0.0625 0.1875 0.0000 (  6140 PWs)   bands (ev):

    -9.6962  -8.2869  -6.1441  -4.1240  -3.2865  -2.7648  -2.0553  -0.9755
    -0.7430  -0.6761   0.5229   1.2738   1.8693   2.1008   2.4568   2.5693

          k = 0.0625 0.2500 0.0000 (  6125 PWs)   bands (ev):

    -9.4470  -8.0396  -5.8996  -4.9726  -3.6020  -3.0444  -1.8243  -1.5184
    -0.7437  -0.4933   0.7282   1.2381   1.6129   2.1106   2.3416   2.7924

          k = 0.0625 0.3125 0.0000 (  6103 PWs)   bands (ev):

    -9.1272  -7.7222  -5.7633  -5.5857  -4.3850  -2.7339  -2.2894  -1.5253
    -0.4463  -0.1955   0.4638   1.1188   1.6437   1.8499   2.3404   2.7933

          k = 0.0625 0.3750 0.0000 (  6091 PWs)   bands (ev):

    -8.7372  -7.3353  -6.4911  -5.2031  -5.1064  -3.0011  -2.3560  -1.1621
    -0.1957  -0.0842   0.1675   0.9615   1.4607   1.9830   2.2023   2.2881

          k = 0.0625 0.4375 0.0000 (  6087 PWs)   bands (ev):

    -8.2778  -7.1538  -6.8794  -5.7640  -4.7524  -3.6503  -1.9123  -0.8667
    -0.6867   0.3375   0.3400   0.5913   1.3991   1.6673   1.8818   2.6236

          k = 0.0625-0.5000 0.0000 (  6102 PWs)   bands (ev):

    -7.7497  -7.7497  -6.3553  -6.3553  -4.2345  -4.2345  -1.4054  -1.4054
    -0.2220  -0.2220   0.8041   0.8041   1.1331   1.1331   2.3585   2.3585

          k = 0.1250 0.1250 0.0000 (  6133 PWs)   bands (ev):

    -9.7675  -8.3576  -6.2141  -3.3559  -3.1275  -3.1275  -1.7711  -1.7711
    -1.0417   0.2712   0.2712   1.4275   1.4275   2.3896   2.8010   2.8010

          k = 0.1250 0.1875 0.0000 (  6118 PWs)   bands (ev):

    -9.5894  -8.1809  -6.0393  -4.0214  -3.1827  -2.9696  -2.6427  -1.6038
    -0.8762  -0.5919   0.4297   1.5806   2.2246   2.2531   2.5772   2.7272

          k = 0.1250 0.2500 0.0000 (  6118 PWs)   bands (ev):

    -9.3404  -7.9338  -5.7949  -4.8694  -3.5028  -2.9410  -2.7121  -1.4298
    -1.3553  -0.6451   0.6296   1.3898   1.5305   1.8916   2.8661   2.8761

          k = 0.1250 0.3125 0.0000 (  6109 PWs)   bands (ev):

    -9.0208  -7.6167  -5.6593  -5.4814  -4.2824  -2.6313  -2.4117  -2.1883
    -1.0660  -0.3492   0.5239   0.7897   1.0753   2.1297   2.1603   2.6964

          k = 0.1250 0.3750 0.0000 (  6081 PWs)   bands (ev):

    -8.6311  -7.2300  -6.3866  -5.0990  -5.0029  -2.8989  -2.2545  -2.0430
    -0.6989  -0.1036   0.0093   0.1007   1.3782   1.4448   2.0891   2.5138

          k = 0.1250 0.4375 0.0000 (  6083 PWs)   bands (ev):

    -8.1720  -7.0488  -6.7744  -5.6600  -4.6487  -3.5476  -1.8133  -1.6106
    -0.7223  -0.5269  -0.2678   0.4078   0.8457   1.4947   1.7941   2.8202

          k = 0.1250-0.5000 0.0000 (  6074 PWs)   bands (ev):

    -7.6443  -7.6443  -6.2506  -6.2506  -4.1310  -4.1310  -1.3308  -1.3308
    -1.0682  -1.0682   0.2195   0.2195   0.9593   0.9593   2.2792   2.2792

          k = 0.1875 0.1875 0.0000 (  6117 PWs)   bands (ev):

    -9.4115  -8.0043  -5.8647  -3.8522  -3.8522  -3.0101  -2.4836  -2.4836
    -0.7114  -0.4285  -0.4285   1.4814   2.3062   2.3063   2.8309   2.8388

          k = 0.1875 0.2500 0.0000 (  6108 PWs)   bands (ev):

    -9.1628  -7.7575  -5.6206  -4.6976  -3.6262  -3.3089  -2.7691  -2.2481
    -1.2502  -0.4818  -0.2044   0.6824   1.5543   2.0270   2.5110   3.0507

          k = 0.1875 0.3125 0.0000 (  6091 PWs)   bands (ev):

    -8.8436  -7.4408  -5.4862  -5.3074  -4.1139  -3.2964  -2.4605  -2.0243
    -1.9388  -0.1900  -0.0704   0.0571   0.8540   1.2796   2.5816   3.1298

          k = 0.1875 0.3750 0.0000 (  6080 PWs)   bands (ev):

    -8.4543  -7.0546  -6.2127  -4.9256  -4.8311  -2.9263  -2.7292  -2.0866
    -1.5731  -0.7645  -0.0047   0.1423   0.5919   0.6158   2.1939   2.5943

          k = 0.1875 0.4375 0.0000 (  6078 PWs)   bands (ev):

    -7.9958  -6.8740  -6.5996  -5.4867  -4.4761  -3.3766  -2.4878  -1.6674
    -1.3774  -1.1370  -0.5713  -0.0844   0.6355   0.9571   1.6378   1.9896

          k = 0.1875-0.5000 0.0000 (  6098 PWs)   bands (ev):

    -7.4687  -7.4687  -6.0766  -6.0766  -3.9593  -3.9593  -1.9863  -1.9863
    -1.1266  -1.1266  -0.6377  -0.6377   1.1046   1.1046   1.4387   1.4387

          k = 0.2500 0.2500 0.0000 (  6089 PWs)   bands (ev):

    -8.9144  -7.5110  -5.3769  -4.4586  -4.4586  -3.0830  -3.0830  -2.5293
    -1.0193  -1.0193  -0.2562  -0.1297   1.2220   1.7657   1.7657   3.0694

          k = 0.2500 0.3125 0.0000 (  6094 PWs)   bands (ev):

    -8.5958  -7.1950  -5.2445  -5.0645  -4.1633  -3.8499  -2.7782  -2.2238
    -1.7844  -0.8883  -0.7275   0.0091   0.4951   1.0454   2.0070   2.4756

          k = 0.2500 0.3750 0.0000 (  6088 PWs)   bands (ev):

    -8.2073  -6.8095  -5.9694  -4.6835  -4.5929  -3.7627  -2.4934  -2.4037
    -1.8702  -1.5701  -0.4014  -0.2738   0.4021   0.4394   1.8074   2.1280

          k = 0.2500 0.4375 0.0000 (  6088 PWs)   bands (ev):

    -7.7495  -6.6297  -6.3553  -5.2448  -4.2347  -3.3229  -3.1377  -2.2443
    -1.9652  -1.3985  -0.8930  -0.4081   0.2126   0.8421   1.1913   1.8008

          k = 0.2500-0.5000 0.0000 (  6098 PWs)   bands (ev):

    -7.2234  -7.2234  -5.8333  -5.8333  -3.7191  -3.7191  -2.8150  -2.8150
    -1.4606  -1.4606  -0.9092  -0.9092   0.6431   0.6431   1.3096   1.3096

          k = 0.3125 0.3125 0.0000 (  6098 PWs)   bands (ev):

    -8.2779  -6.8795  -4.9352  -4.9352  -4.7526  -3.5553  -3.5553  -1.9378
    -1.6351  -1.4850  -1.4850  -0.3376   0.3736   1.3160   1.3160   1.7455

          k = 0.3125 0.3750 0.0000 (  6092 PWs)   bands (ev):

    -7.8902  -6.4951  -5.6574  -4.5698  -4.3728  -4.2595  -3.1809  -2.3747
    -2.1885  -1.5351  -1.1255  -1.0225   0.6540   0.7102   1.0651   1.6196

          k = 0.3125 0.4375 0.0000 (  6088 PWs)   bands (ev):

    -7.4334  -6.3161  -6.0419  -4.9369  -4.1001  -3.9253  -3.0136  -2.8317
    -2.7386  -1.6573  -1.1130  -0.7329   0.0740   0.4516   1.1122   1.8010

          k = 0.3125-0.5000 0.0000 (  6082 PWs)   bands (ev):

    -6.9085  -6.9085  -5.5216  -5.5216  -3.5906  -3.5906  -3.4112  -3.4112
    -2.2302  -2.2302  -0.6786  -0.6786  -0.0449  -0.0449   1.5375   1.5375

          k = 0.3750 0.3750 0.0000 (  6086 PWs)   bands (ev):

    -7.5036  -6.1116  -5.2780  -5.2780  -3.9942  -3.8952  -3.8952  -3.0799
    -1.8203  -1.8203  -1.7232  -1.1811   0.3874   0.9897   0.9897   1.0463

          k = 0.3750 0.4375 0.0000 (  6079 PWs)   bands (ev):

    -7.0482  -5.9340  -5.6603  -4.8425  -4.5341  -3.7251  -3.5483  -3.4517
    -2.4591  -2.3636  -1.3927  -0.8143  -0.1744   0.3903   1.3589   1.4058

          k = 0.3750-0.5000 0.0000 (  6084 PWs)   bands (ev):

    -6.5246  -6.5246  -5.1438  -5.1438  -4.3034  -4.3034  -3.0360  -3.0360
    -2.9402  -2.9402  -0.9331  -0.9331  -0.1246  -0.1246   1.6040   1.6040

          k = 0.4375 0.4375 0.0000 (  6100 PWs)   bands (ev):

    -6.5943  -5.4848  -5.4848  -5.2129  -4.3717  -4.1003  -4.1003  -3.1046
    -3.0076  -2.0226  -2.0226  -0.9999  -0.1911   0.7925   0.7925   1.5385

          k = 0.4375-0.5000 0.0000 (  6110 PWs)   bands (ev):

    -6.0727  -6.0727  -4.9794  -4.9794  -4.6719  -4.6719  -3.5876  -3.5876
    -2.5952  -2.5952  -1.5268  -1.5268   0.2573   0.2573   1.2278   1.2278

          k =-0.5000-0.5000 0.0000 (  6124 PWs)   bands (ev):

    -5.5536  -5.5536  -5.5536  -5.5536  -4.1687  -4.1687  -4.1687  -4.1687
    -2.0904  -2.0904  -2.0904  -2.0904   0.7260   0.7260   0.7260   0.7260

     the Fermi energy is     0.6802 ev

!    total energy              =     -99.58009926 Ry
     Harris-Foulkes estimate   =     -99.58009927 Ry
     estimated scf accuracy    <          2.3E-09 Ry

     The total energy is the sum of the following terms:

     one-electron contribution =    -260.38718464 Ry
     hartree contribution      =     135.73974991 Ry
     xc contribution           =     -79.82813322 Ry
     ewald contribution        =     104.89524752 Ry
     smearing contrib. (-TS)   =       0.00022117 Ry

     convergence has been achieved in   8 iterations

     Forces acting on atoms (Ry/au):

     atom    1 type  1   force =     0.00000000    0.00000000   -0.00384119
     atom    2 type  1   force =     0.00000000    0.00000000   -0.00384117
     atom    3 type  1   force =     0.00000000    0.00000000   -0.00063480
     atom    4 type  1   force =     0.00000000    0.00000000   -0.00063480
     atom    5 type  1   force =     0.00000000    0.00000000    0.00063485
     atom    6 type  1   force =     0.00000000    0.00000000    0.00063484
     atom    7 type  1   force =     0.00000000    0.00000000    0.00384113
     atom    8 type  1   force =     0.00000000    0.00000000    0.00384113

     Total force =     0.007787     Total SCF correction =     0.000072


     entering subroutine stress ...

          total   stress  (Ry/bohr**3)                   (kbar)     P=  -11.47
  -0.00012893   0.00000000   0.00000000        -18.97      0.00      0.00
   0.00000000  -0.00012893   0.00000000          0.00    -18.97      0.00
   0.00000000   0.00000000   0.00002390          0.00      0.00      3.52


     number of scf cycles    =   4
     number of bfgs steps    =   3

     energy   old            =     -99.5798908765 Ry
     energy   new            =     -99.5800992644 Ry

     CASE: energy  _new < energy  _old

     new trust radius        =       0.0186497493 bohr
     new conv_thr            =       0.0000000208 Ry


ATOMIC_POSITIONS (crystal)
Al       0.000000000   0.000000000  -0.001180718
Al       0.500000000   0.500000000  -0.001180727
Al       0.500000000   0.000000000   0.100128937
Al       0.000000000   0.500000000   0.100128937
Al       0.000000000   0.000000000   0.199871046
Al       0.500000000   0.500000000   0.199871051
Al       0.500000000   0.000000000   0.301180738
Al       0.000000000   0.500000000   0.301180738



     Writing output data file Al_100_2_3.save
     NEW-OLD atomic charge density approx. for the potential

     negative rho (up, down):  1.793E-07 0.000E+00

     total cpu time spent up to now is      630.3 secs

     per-process dynamical memory:   114.5 Mb

     Self-consistent Calculation

     iteration #  1     ecut=    30.00 Ry     beta=0.30
     Davidson diagonalization with overlap
     ethr =  1.00E-06,  avg # of iterations =  3.5

     negative rho (up, down):  2.227E-08 0.000E+00

     total cpu time spent up to now is      656.6 secs

     total energy              =     -99.58034732 Ry
     Harris-Foulkes estimate   =     -99.58035280 Ry
     estimated scf accuracy    <       0.00006523 Ry

     iteration #  2     ecut=    30.00 Ry     beta=0.30
     Davidson diagonalization with overlap
     ethr =  2.72E-07,  avg # of iterations =  1.0

     negative rho (up, down):  2.575E-07 0.000E+00

     total cpu time spent up to now is      670.4 secs

     total energy              =     -99.58033452 Ry
     Harris-Foulkes estimate   =     -99.58034850 Ry
     estimated scf accuracy    <       0.00004108 Ry

     iteration #  3     ecut=    30.00 Ry     beta=0.30
     Davidson diagonalization with overlap
     ethr =  1.71E-07,  avg # of iterations =  2.0

     negative rho (up, down):  3.847E-08 0.000E+00

     total cpu time spent up to now is      687.0 secs

     total energy              =     -99.58034273 Ry
     Harris-Foulkes estimate   =     -99.58034366 Ry
     estimated scf accuracy    <       0.00000662 Ry

     iteration #  4     ecut=    30.00 Ry     beta=0.30
     Davidson diagonalization with overlap
     ethr =  2.76E-08,  avg # of iterations =  1.0

     total cpu time spent up to now is      700.9 secs

     total energy              =     -99.58034281 Ry
     Harris-Foulkes estimate   =     -99.58034303 Ry
     estimated scf accuracy    <       0.00000204 Ry

     iteration #  5     ecut=    30.00 Ry     beta=0.30
     Davidson diagonalization with overlap
     ethr =  8.52E-09,  avg # of iterations =  1.9

     total cpu time spent up to now is      715.2 secs

     total energy              =     -99.58034285 Ry
     Harris-Foulkes estimate   =     -99.58034293 Ry
     estimated scf accuracy    <       0.00000028 Ry

     iteration #  6     ecut=    30.00 Ry     beta=0.30
     Davidson diagonalization with overlap
     ethr =  1.17E-09,  avg # of iterations =  3.1

     total cpu time spent up to now is      733.3 secs

     total energy              =     -99.58034296 Ry
     Harris-Foulkes estimate   =     -99.58034296 Ry
     estimated scf accuracy    <       0.00000025 Ry

     iteration #  7     ecut=    30.00 Ry     beta=0.30
     Davidson diagonalization with overlap
     ethr =  1.02E-09,  avg # of iterations =  1.0

     total cpu time spent up to now is      746.8 secs

     total energy              =     -99.58034292 Ry
     Harris-Foulkes estimate   =     -99.58034296 Ry
     estimated scf accuracy    <       0.00000028 Ry

     iteration #  8     ecut=    30.00 Ry     beta=0.30
     Davidson diagonalization with overlap
     ethr =  1.02E-09,  avg # of iterations =  1.0

     total cpu time spent up to now is      760.1 secs

     End of self-consistent calculation

          k = 0.0000 0.0000 0.0000 (  6123 PWs)   bands (ev):

   -10.0334  -8.6158  -6.4956  -3.6436  -1.7761  -1.7761  -1.3180  -0.4609
    -0.4609  -0.4042  -0.4042   1.0512   1.0512   1.5091   1.5091   2.1353

          k = 0.0000 0.0625 0.0000 (  6131 PWs)   bands (ev):

    -9.9977  -8.5804  -6.4605  -3.6087  -2.3415  -1.7435  -1.2845  -1.0114
    -0.4282  -0.3440   0.2095   0.9743   1.1245   1.5418   1.6331   2.1681

          k = 0.0000 0.1250 0.0000 (  6135 PWs)   bands (ev):

    -9.8906  -8.4741  -6.3553  -3.5043  -3.2416  -1.8876  -1.6449  -1.1848
    -0.3294  -0.2398   0.1371   1.0649   1.4343   1.6398   2.2653   2.6265

          k = 0.0000 0.1875 0.0000 (  6133 PWs)   bands (ev):

    -9.7123  -8.2972  -6.1802  -4.1383  -3.3307  -2.7701  -1.4807  -1.0188
    -0.7266  -0.1653  -0.0708   1.3131   1.8031   1.9940   2.4238   2.5484

          k = 0.0000 0.2500 0.0000 (  6115 PWs)   bands (ev):

    -9.4630  -8.0499  -5.9355  -4.9873  -3.6097  -3.0882  -1.5519  -1.2507
    -0.7864   0.0641   0.1569   1.2361   1.5511   2.0314   2.6341   2.9542

          k = 0.0000 0.3125 0.0000 (  6117 PWs)   bands (ev):

    -9.1432  -7.7324  -5.7783  -5.6217  -4.3938  -2.7777  -2.3238  -0.9556
    -0.4889   0.3084   0.3596   0.6501   1.8270   2.1985   2.3259   2.7177

          k = 0.0000 0.3750 0.0000 (  6090 PWs)   bands (ev):

    -8.7530  -7.3453  -6.5063  -5.2388  -5.1155  -3.0357  -2.3993  -0.5938
    -0.2520  -0.1258   0.7209   0.8906   1.5087   1.8632   2.3778   2.6849

          k = 0.0000 0.4375 0.0000 (  6100 PWs)   bands (ev):

    -8.2935  -7.1691  -6.8892  -5.7734  -4.7879  -3.6854  -1.9549  -0.8757
    -0.1669   0.3010   0.8843   1.1472   1.3116   1.3317   2.1969   2.3216

          k = 0.0000-0.5000 0.0000 (  6086 PWs)   bands (ev):

    -7.7653  -7.7653  -6.3649  -6.3649  -4.2697  -4.2697  -1.4459  -1.4459
     0.3257   0.3257   0.7895   0.7895   1.6394   1.6394   1.7963   1.7963

          k = 0.0625 0.0625 0.0000 (  6129 PWs)   bands (ev):

    -9.9620  -8.5450  -6.4254  -3.5739  -2.3087  -2.3087  -1.2512  -0.9691
    -0.9691   0.2687   0.2687   1.0266   1.0266   1.6783   1.6783   2.2002

          k = 0.0625 0.1250 0.0000 (  6136 PWs)   bands (ev):

    -9.8549  -8.4387  -6.3202  -3.4696  -3.2078  -2.2146  -1.8427  -1.1515
    -0.8672   0.1730   0.3770   1.1238   1.3156   1.8091   2.2948   2.7144

          k = 0.0625 0.1875 0.0000 (  6140 PWs)   bands (ev):

    -9.6767  -8.2618  -6.1453  -4.1042  -3.2961  -2.7388  -2.0352  -0.9857
    -0.7225  -0.6697   0.5429   1.2728   1.8933   2.0920   2.4392   2.5892

          k = 0.0625 0.2500 0.0000 (  6125 PWs)   bands (ev):

    -9.4275  -8.0146  -5.9007  -4.9529  -3.5762  -3.0539  -1.8041  -1.5186
    -0.7538  -0.4663   0.7474   1.2311   1.6107   2.1342   2.3564   2.7784

          k = 0.0625 0.3125 0.0000 (  6103 PWs)   bands (ev):

    -9.1076  -7.6972  -5.7436  -5.5868  -4.3594  -2.7433  -2.2899  -1.5051
    -0.4563  -0.1684   0.4581   1.1350   1.6639   1.8492   2.3568   2.7936

          k = 0.0625 0.3750 0.0000 (  6091 PWs)   bands (ev):

    -8.7177  -7.3102  -6.4715  -5.2041  -5.0810  -3.0017  -2.3653  -1.1418
    -0.2040  -0.0940   0.1946   0.9818   1.4794   1.9760   2.2017   2.3158

          k = 0.0625 0.4375 0.0000 (  6087 PWs)   bands (ev):

    -8.2582  -7.1341  -6.8542  -5.7387  -4.7533  -3.6510  -1.9214  -0.8688
    -0.6732   0.3305   0.3577   0.6180   1.3911   1.6948   1.9010   2.6230

          k = 0.0625-0.5000 0.0000 (  6102 PWs)   bands (ev):

    -7.7301  -7.7301  -6.3301  -6.3301  -4.2353  -4.2353  -1.4142  -1.4142
    -0.2021  -0.2021   0.7978   0.7978   1.1576   1.1576   2.3778   2.3778

          k = 0.1250 0.1250 0.0000 (  6133 PWs)   bands (ev):

    -9.7480  -8.3326  -6.2152  -3.3654  -3.1075  -3.1075  -1.7447  -1.7447
    -1.0520   0.2708   0.2708   1.4476   1.4476   2.3719   2.8255   2.8255

          k = 0.1250 0.1875 0.0000 (  6118 PWs)   bands (ev):

    -9.5698  -8.1558  -6.0404  -4.0016  -3.1923  -2.9493  -2.6171  -1.5773
    -0.8864  -0.5924   0.4292   1.6001   2.2162   2.2645   2.5975   2.7152

          k = 0.1250 0.2500 0.0000 (  6118 PWs)   bands (ev):

    -9.3208  -7.9087  -5.7960  -4.8497  -3.4770  -2.9504  -2.6922  -1.4250
    -1.3342  -0.6552   0.6288   1.3850   1.5503   1.9076   2.8458   2.9036

          k = 0.1250 0.3125 0.0000 (  6109 PWs)   bands (ev):

    -9.0012  -7.5916  -5.6396  -5.4825  -4.2568  -2.6407  -2.3917  -2.1887
    -1.0398  -0.3592   0.5170   0.8098   1.0734   2.1569   2.1793   2.6911

          k = 0.1250 0.3750 0.0000 (  6081 PWs)   bands (ev):

    -8.6115  -7.2048  -6.3669  -5.1000  -4.9775  -2.8995  -2.2637  -2.0230
    -0.6725  -0.1123  -0.0003   0.1207   1.3776   1.4717   2.0814   2.5333

          k = 0.1250 0.4375 0.0000 (  6083 PWs)   bands (ev):

    -8.1524  -7.0291  -6.7493  -5.6346  -4.6496  -3.5484  -1.8222  -1.5905
    -0.7314  -0.5073  -0.2415   0.4010   0.8699   1.4862   1.7937   2.8197

          k = 0.1250-0.5000 0.0000 (  6074 PWs)   bands (ev):

    -7.6247  -7.6247  -6.2254  -6.2254  -4.1318  -4.1318  -1.3354  -1.3354
    -1.0528  -1.0528   0.2449   0.2449   0.9515   0.9515   2.2788   2.2788

          k = 0.1875 0.1875 0.0000 (  6117 PWs)   bands (ev):

    -9.3919  -7.9793  -5.8658  -3.8323  -3.8323  -3.0196  -2.4576  -2.4576
    -0.7216  -0.4290  -0.4290   1.5011   2.3009   2.3010   2.8560   2.8582

          k = 0.1875 0.2500 0.0000 (  6108 PWs)   bands (ev):

    -9.1432  -7.7324  -5.6217  -4.6778  -3.6059  -3.2836  -2.7785  -2.2219
    -1.2509  -0.4918  -0.2050   0.7025   1.5464   2.0541   2.5044   2.9919

          k = 0.1875 0.3125 0.0000 (  6091 PWs)   bands (ev):

    -8.8240  -7.4157  -5.4665  -5.3085  -4.0883  -3.2765  -2.4698  -2.0225
[...]
    -2.0848  -2.0848  -2.0848  -2.0848   0.6839   0.6839   0.6839   0.6839

     the Fermi energy is     0.7012 ev

!    total energy              =     -99.58078455 Ry
     Harris-Foulkes estimate   =     -99.58078455 Ry
     estimated scf accuracy    <          3.2E-09 Ry

     The total energy is the sum of the following terms:

     one-electron contribution =    -255.33742315 Ry
     hartree contribution      =     133.23299036 Ry
     xc contribution           =     -79.78138942 Ry
     ewald contribution        =     102.30476004 Ry
     smearing contrib. (-TS)   =       0.00027761 Ry

     convergence has been achieved in   8 iterations

     Forces acting on atoms (Ry/au):

     atom    1 type  1   force =     0.00000000    0.00000000    0.00047139
     atom    2 type  1   force =     0.00000000    0.00000000    0.00047143
     atom    3 type  1   force =     0.00000000    0.00000000   -0.00339585
     atom    4 type  1   force =     0.00000000    0.00000000   -0.00339585
     atom    5 type  1   force =     0.00000000    0.00000000    0.00339594
     atom    6 type  1   force =     0.00000000    0.00000000    0.00339591
     atom    7 type  1   force =     0.00000000    0.00000000   -0.00047148
     atom    8 type  1   force =     0.00000000    0.00000000   -0.00047148

     Total force =     0.006857     Total SCF correction =     0.000091


     entering subroutine stress ...

          total   stress  (Ry/bohr**3)                   (kbar)     P=  -14.69
  -0.00014370   0.00000000   0.00000000        -21.14      0.00      0.00
   0.00000000  -0.00014370   0.00000000          0.00    -21.14      0.00
   0.00000000   0.00000000  -0.00001214          0.00      0.00     -1.79


     number of scf cycles    =   8
     number of bfgs steps    =   7

     energy   old            =     -99.5807221989 Ry
     energy   new            =     -99.5807845511 Ry

     CASE: energy  _new < energy  _old

     new trust radius        =       0.0189633571 bohr
     new conv_thr            =       0.0000000100 Ry


ATOMIC_POSITIONS (crystal)
Al       0.000000000   0.000000000  -0.003589135
Al       0.500000000   0.500000000  -0.003589155
Al       0.500000000   0.000000000   0.099448672
Al       0.000000000   0.500000000   0.099448672
Al       0.000000000   0.000000000   0.200551305
Al       0.500000000   0.500000000   0.200551315
Al       0.500000000   0.000000000   0.303589163
Al       0.000000000   0.500000000   0.303589163



     Writing output data file Al_100_2_3.save
     NEW-OLD atomic charge density approx. for the potential

     negative rho (up, down):  2.366E-07 0.000E+00

     total cpu time spent up to now is     1251.9 secs

     per-process dynamical memory:   114.5 Mb

     Self-consistent Calculation

     iteration #  1     ecut=    30.00 Ry     beta=0.30
     Davidson diagonalization with overlap
     ethr =  1.00E-06,  avg # of iterations =  4.0

     negative rho (up, down):  5.184E-08 0.000E+00

     total cpu time spent up to now is     1280.7 secs

     total energy              =     -99.58091277 Ry
     Harris-Foulkes estimate   =     -99.58092718 Ry
     estimated scf accuracy    <       0.00026058 Ry

     iteration #  2     ecut=    30.00 Ry     beta=0.30
     Davidson diagonalization with overlap
     ethr =  1.09E-06,  avg # of iterations =  1.0

     negative rho (up, down):  7.728E-07 0.000E+00

     total cpu time spent up to now is     1294.4 secs

     total energy              =     -99.58087845 Ry
     Harris-Foulkes estimate   =     -99.58091470 Ry
     estimated scf accuracy    <       0.00015613 Ry

     iteration #  3     ecut=    30.00 Ry     beta=0.30
     Davidson diagonalization with overlap
     ethr =  6.51E-07,  avg # of iterations =  2.0

     negative rho (up, down):  1.635E-07 0.000E+00

     total cpu time spent up to now is     1309.9 secs

     total energy              =     -99.58090116 Ry
     Harris-Foulkes estimate   =     -99.58090403 Ry
     estimated scf accuracy    <       0.00002123 Ry

     iteration #  4     ecut=    30.00 Ry     beta=0.30
     Davidson diagonalization with overlap
     ethr =  8.85E-08,  avg # of iterations =  1.4

     negative rho (up, down):  7.562E-08 0.000E+00

     total cpu time spent up to now is     1323.9 secs

     total energy              =     -99.58090217 Ry
     Harris-Foulkes estimate   =     -99.58090216 Ry
     estimated scf accuracy    <       0.00000384 Ry

     iteration #  5     ecut=    30.00 Ry     beta=0.30
     Davidson diagonalization with overlap
     ethr =  1.60E-08,  avg # of iterations =  1.0

     negative rho (up, down):  1.903E-08 0.000E+00

     total cpu time spent up to now is     1337.6 secs

     total energy              =     -99.58090162 Ry
     Harris-Foulkes estimate   =     -99.58090225 Ry
     estimated scf accuracy    <       0.00000287 Ry

     iteration #  6     ecut=    30.00 Ry     beta=0.30
     Davidson diagonalization with overlap
     ethr =  1.19E-08,  avg # of iterations =  2.4

     total cpu time spent up to now is     1353.5 secs

     total energy              =     -99.58090220 Ry
     Harris-Foulkes estimate   =     -99.58090218 Ry
     estimated scf accuracy    <       0.00000072 Ry

     iteration #  7     ecut=    30.00 Ry     beta=0.30
     Davidson diagonalization with overlap
     ethr =  3.00E-09,  avg # of iterations =  1.0

     total cpu time spent up to now is     1366.9 secs

     total energy              =     -99.58090216 Ry
     Harris-Foulkes estimate   =     -99.58090220 Ry
     estimated scf accuracy    <       0.00000079 Ry

     iteration #  8     ecut=    30.00 Ry     beta=0.30
     Davidson diagonalization with overlap
     ethr =  3.00E-09,  avg # of iterations =  1.0

     total cpu time spent up to now is     1381.1 secs

     total energy              =     -99.58090216 Ry
     Harris-Foulkes estimate   =     -99.58090217 Ry
     estimated scf accuracy    <       0.00000054 Ry

     iteration #  9     ecut=    30.00 Ry     beta=0.30
     Davidson diagonalization with overlap
     ethr =  2.26E-09,  avg # of iterations =  1.0

     total cpu time spent up to now is     1394.8 secs

     total energy              =     -99.58090215 Ry
     Harris-Foulkes estimate   =     -99.58090216 Ry
     estimated scf accuracy    <       0.00000050 Ry

     iteration # 10     ecut=    30.00 Ry     beta=0.30
     Davidson diagonalization with overlap
     ethr =  2.08E-09,  avg # of iterations =  1.0

     total cpu time spent up to now is     1408.5 secs

     total energy              =     -99.58090211 Ry
     Harris-Foulkes estimate   =     -99.58090215 Ry
     estimated scf accuracy    <       0.00000035 Ry

     iteration # 11     ecut=    30.00 Ry     beta=0.30
     Davidson diagonalization with overlap
     ethr =  1.45E-09,  avg # of iterations =  1.0

     total cpu time spent up to now is     1422.1 secs

     total energy              =     -99.58090211 Ry
     Harris-Foulkes estimate   =     -99.58090212 Ry
     estimated scf accuracy    <       0.00000006 Ry

     iteration # 12     ecut=    30.00 Ry     beta=0.30
     Davidson diagonalization with overlap
     ethr =  2.33E-10,  avg # of iterations =  2.6

     total cpu time spent up to now is     1436.3 secs

     End of self-consistent calculation

          k = 0.0000 0.0000 0.0000 (  6123 PWs)   bands (ev):

    -9.9189  -8.5330  -6.4836  -3.6928  -1.6560  -1.6560  -1.3680  -0.3685
    -0.3685  -0.2875  -0.2875   1.1291   1.1291   1.5299   1.5299   2.0274

          k = 0.0000 0.0625 0.0000 (  6131 PWs)   bands (ev):

    -9.8833  -8.4976  -6.4485  -3.6578  -2.2230  -1.6234  -1.3344  -0.9200
    -0.3358  -0.2306   0.3289   1.0083   1.1849   1.5625   1.7161   2.0606

          k = 0.0000 0.1250 0.0000 (  6135 PWs)   bands (ev):

    -9.7762  -8.3913  -6.3433  -3.5534  -3.1244  -1.7993  -1.5247  -1.2344
    -0.2370  -0.1258   0.1572   1.1613   1.5305   1.6605   2.1589   2.6554

          k = 0.0000 0.1875 0.0000 (  6133 PWs)   bands (ev):

    -9.5978  -8.2143  -6.1681  -4.0219  -3.3796  -2.6833  -1.3605  -1.0681
    -0.7089  -0.0728   0.0440   1.3934   1.8238   1.9508   2.3203   2.6626

          k = 0.0000 0.2500 0.0000 (  6115 PWs)   bands (ev):

    -9.3485  -7.9669  -5.9233  -4.8714  -3.5240  -3.1368  -1.5355  -1.1304
    -0.8352   0.1566   0.2730   1.1878   1.6292   2.0521   2.5382   3.0761

          k = 0.0000 0.3125 0.0000 (  6117 PWs)   bands (ev):

    -9.0286  -7.6493  -5.6627  -5.6092  -4.3089  -2.8258  -2.3086  -0.8351
    -0.5371   0.3413   0.4522   0.6837   1.8990   2.3202   2.3466   2.6836

          k = 0.0000 0.3750 0.0000 (  6090 PWs)   bands (ev):

    -8.6384  -7.2620  -6.3910  -5.2261  -5.0311  -3.0211  -2.4468  -0.4732
    -0.2893  -0.1731   0.8136   0.9939   1.6302   1.8471   2.4299   2.7055

          k = 0.0000 0.4375 0.0000 (  6100 PWs)   bands (ev):

    -8.1788  -7.0541  -6.8058  -5.6894  -4.7749  -3.6714  -2.0015  -0.9188
    -0.0461   0.2548   1.0056   1.2401   1.2907   1.4207   2.2901   2.4307

          k = 0.0000-0.5000 0.0000 (  6086 PWs)   bands (ev):

    -7.6504  -7.6504  -6.2812  -6.2812  -4.2563  -4.2563  -1.4913  -1.4913
     0.4468   0.4468   0.7450   0.7450   1.7326   1.7326   1.9076   1.9076

          k = 0.0625 0.0625 0.0000 (  6129 PWs)   bands (ev):

    -9.8475  -8.4622  -6.4134  -3.6230  -2.1902  -2.1902  -1.3011  -0.8791
    -0.8791   0.3857   0.3857   1.0473   1.0473   1.7569   1.7569   2.0932

          k = 0.0625 0.1250 0.0000 (  6136 PWs)   bands (ev):

    -9.7405  -8.3559  -6.3082  -3.5185  -3.0906  -2.0958  -1.7552  -1.2011
    -0.7774   0.1914   0.4935   1.1431   1.4350   1.8868   2.1898   2.7812

          k = 0.0625 0.1875 0.0000 (  6140 PWs)   bands (ev):

    -9.5622  -8.1790  -6.1331  -3.9878  -3.3449  -2.6516  -1.9175  -1.0350
    -0.6790  -0.6067   0.6601   1.2907   1.9792   2.0462   2.3431   2.7015

          k = 0.0625 0.2500 0.0000 (  6125 PWs)   bands (ev):

    -9.3130  -7.9316  -5.8884  -4.8370  -3.4904  -3.1023  -1.6858  -1.5021
    -0.8026  -0.3773   0.8578   1.2038   1.6149   2.2152   2.4198   2.7308

          k = 0.0625 0.3125 0.0000 (  6103 PWs)   bands (ev):

    -8.9931  -7.6140  -5.6280  -5.5743  -4.2745  -2.7913  -2.2746  -1.3863
    -0.5044  -0.0791   0.4274   1.2350   1.7823   1.8660   2.4043   2.7882

          k = 0.0625 0.3750 0.0000 (  6091 PWs)   bands (ev):

    -8.6030  -7.2269  -6.3562  -5.1914  -4.9966  -2.9871  -2.4127  -1.0225
    -0.2466  -0.1411   0.2839   1.1010   1.5898   1.9401   2.2196   2.4062

          k = 0.0625 0.4375 0.0000 (  6087 PWs)   bands (ev):

    -8.1435  -7.0191  -6.7707  -5.6547  -4.7403  -3.6371  -1.9678  -0.8943
    -0.5737   0.2849   0.4762   0.7054   1.3507   1.7844   2.0139   2.6410

          k = 0.0625-0.5000 0.0000 (  6102 PWs)   bands (ev):

    -7.6153  -7.6153  -6.2464  -6.2464  -4.2219  -4.2219  -1.4588  -1.4588
    -0.0848  -0.0848   0.7617   0.7617   1.2389   1.2389   2.4912   2.4912

          k = 0.1250 0.1250 0.0000 (  6133 PWs)   bands (ev):

    -9.6335  -8.2497  -6.2031  -3.4143  -2.9901  -2.9901  -1.6574  -1.6574
    -1.1014   0.2887   0.2887   1.5664   1.5664   2.2762   2.9046   2.9046

          k = 0.1250 0.1875 0.0000 (  6118 PWs)   bands (ev):

    -9.4553  -8.0729  -6.0282  -3.8851  -3.2409  -2.8315  -2.5314  -1.4897
    -0.9354  -0.5760   0.4470   1.7158   2.1705   2.3042   2.6845   2.7144

          k = 0.1250 0.2500 0.0000 (  6118 PWs)   bands (ev):

    -9.2063  -7.8257  -5.7837  -4.7337  -3.3905  -2.9987  -2.5759  -1.4026
    -1.2534  -0.7037   0.6445   1.3572   1.6668   2.0063   2.7388   2.9929

          k = 0.1250 0.3125 0.0000 (  6109 PWs)   bands (ev):

    -8.8867  -7.5084  -5.5240  -5.4699  -4.1716  -2.6885  -2.2745  -2.1732
    -0.9528  -0.4069   0.4861   0.9278   1.0786   2.2457   2.2909   2.6594

          k = 0.1250 0.3750 0.0000 (  6081 PWs)   bands (ev):

    -8.4969  -7.1215  -6.2517  -5.0872  -4.8930  -2.8849  -2.3106  -1.9051
    -0.5852  -0.1557  -0.0466   0.2381   1.3925   1.5594   2.0418   2.6473

          k = 0.1250 0.4375 0.0000 (  6083 PWs)   bands (ev):

    -8.0377  -6.9141  -6.6658  -5.5505  -4.6365  -3.5344  -1.8674  -1.4719
    -0.7779  -0.3914  -0.1543   0.3636   0.9494   1.4437   1.8099   2.8341

          k = 0.1250-0.5000 0.0000 (  6074 PWs)   bands (ev):

    -7.5098  -7.5098  -6.1417  -6.1417  -4.1183  -4.1183  -1.3665  -1.3665
    -0.9506  -0.9506   0.3282   0.3282   0.9113   0.9113   2.2953   2.2953

          k = 0.1875 0.1875 0.0000 (  6117 PWs)   bands (ev):

    -9.2774  -7.8963  -5.8535  -3.7155  -3.7155  -3.0680  -2.3716  -2.3716
    -0.7702  -0.4123  -0.4123   1.6171   2.2692   2.2692   2.6801   2.9598

          k = 0.1875 0.2500 0.0000 (  6108 PWs)   bands (ev):

    -9.0287  -7.6493  -5.6092  -4.5617  -3.4886  -3.1989  -2.8264  -2.1356
    -1.2352  -0.5398  -0.1882   0.8201   1.5035   2.1423   2.4653   2.8836

          k = 0.1875 0.3125 0.0000 (  6091 PWs)   bands (ev):

    -8.7094  -7.3325  -5.3509  -5.2958  -4.0023  -3.1609  -2.5170  -2.0046
    -1.8315  -0.2462   0.0665   0.0702   0.8032   1.3933   2.5450   3.0662

          k = 0.1875 0.3750 0.0000 (  6080 PWs)   bands (ev):

    -8.3201  -6.9460  -6.0776  -4.9137  -4.7210  -2.7897  -2.7150  -2.1413
    -1.4609  -0.6296  -0.0453   0.0974   0.5931   0.7185   2.1507   2.6071

          k = 0.1875 0.4375 0.0000 (  6078 PWs)   bands (ev):

    -7.8614  -6.7393  -6.4909  -5.3772  -4.4638  -3.3632  -2.3505  -1.7061
    -1.2581  -1.0244  -0.6252   0.0220   0.5878   0.9704   1.5884   2.0050

          k = 0.1875-0.5000 0.0000 (  6098 PWs)   bands (ev):

    -7.3342  -7.3342  -5.9675  -5.9675  -3.9465  -3.9465  -1.8479  -1.8479
    -1.1836  -1.1836  -0.5253  -0.5253   1.0524   1.0524   1.4536   1.4536

          k = 0.2500 0.2500 0.0000 (  6089 PWs)   bands (ev):

    -8.7802  -7.4027  -5.3654  -4.3223  -4.3223  -2.9722  -2.9722  -2.5859
    -1.0038  -1.0038  -0.3125   0.0070   1.3354   1.7142   1.7142   3.0042

          k = 0.2500 0.3125 0.0000 (  6094 PWs)   bands (ev):

    -8.4616  -7.0865  -5.1090  -5.0527  -4.0261  -3.7407  -2.6669  -2.2787
    -1.7696  -0.7535  -0.7119  -0.0361   0.5975   0.9914   1.9597   2.4879

          k = 0.2500 0.3750 0.0000 (  6088 PWs)   bands (ev):

    -8.0730  -6.7008  -5.8342  -4.6714  -4.4819  -3.6276  -2.4781  -2.2933
    -1.9105  -1.4499  -0.3893  -0.1686   0.3501   0.3919   1.8224   2.0905

          k = 0.2500 0.4375 0.0000 (  6088 PWs)   bands (ev):

    -7.6151  -6.4948  -6.2464  -5.1350  -4.2222  -3.1867  -3.1241  -2.1062
    -1.8535  -1.4560  -0.7812  -0.4494   0.2130   0.7893   1.2058   1.7564

          k = 0.2500-0.5000 0.0000 (  6098 PWs)   bands (ev):

    -7.0888  -7.0888  -5.7241  -5.7241  -3.7061  -3.7061  -2.6780  -2.6780
    -1.3486  -1.3486  -0.9637  -0.9637   0.6559   0.6559   1.2593   1.2593

          k = 0.3125 0.3125 0.0000 (  6098 PWs)   bands (ev):

    -8.1436  -6.7709  -4.7993  -4.7993  -4.7406  -3.4451  -3.4451  -1.9786
    -1.5145  -1.4698  -1.4698  -0.2327   0.3263   1.2634   1.2634   1.7604

          k = 0.3125 0.3750 0.0000 (  6092 PWs)   bands (ev):

    -7.7558  -6.3862  -5.5221  -4.4329  -4.3606  -4.1508  -3.0704  -2.2367
    -2.1739  -1.5930  -1.1102  -0.9109   0.5992   0.6573   1.0795   1.5719

          k = 0.3125 0.4375 0.0000 (  6088 PWs)   bands (ev):

    -7.2989  -6.1812  -5.9328  -4.8263  -3.9653  -3.9126  -2.8768  -2.8189
    -2.6266  -1.5455  -1.1679  -0.7213   0.0216   0.4640   1.0614   1.7631

          k = 0.3125-0.5000 0.0000 (  6082 PWs)   bands (ev):

    -6.7738  -6.7738  -5.4120  -5.4120  -3.4547  -3.4547  -3.3981  -3.3981
    -2.1186  -2.1186  -0.7204  -0.7204  -0.0448  -0.0448   1.4925   1.4925

          k = 0.3750 0.3750 0.0000 (  6086 PWs)   bands (ev):

    -7.3691  -6.0025  -5.1423  -5.1423  -3.9816  -3.7857  -3.7857  -2.9432
    -1.8054  -1.8054  -1.6114  -1.2361   0.3997   0.9368   0.9368   0.9953

          k = 0.3750 0.4375 0.0000 (  6079 PWs)   bands (ev):

    -6.9135  -5.7988  -5.5508  -4.7057  -4.4258  -3.5893  -3.5355  -3.3418
    -2.4446  -2.2521  -1.3778  -0.8563  -0.1745   0.3351   1.3110   1.3605

          k = 0.3750-0.5000 0.0000 (  6084 PWs)   bands (ev):

    -6.3898  -6.3898  -5.0334  -5.0334  -4.1688  -4.1688  -3.0245  -3.0245
    -2.8274  -2.8274  -0.9218  -0.9218  -0.1772  -0.1772   1.5658   1.5658

          k = 0.4375 0.4375 0.0000 (  6100 PWs)   bands (ev):

    -6.4594  -5.3492  -5.3492  -5.1025  -4.2371  -3.9910  -3.9910  -3.0935
    -2.8947  -2.0080  -2.0080  -0.9888  -0.2438   0.7393   0.7393   1.5002

          k = 0.4375-0.5000 0.0000 (  6110 PWs)   bands (ev):

    -5.9376  -5.9376  -4.8427  -4.8427  -4.5638  -4.5638  -3.4780  -3.4780
    -2.5807  -2.5807  -1.5119  -1.5119   0.2019   0.2019   1.1798   1.1798

          k =-0.5000-0.5000 0.0000 (  6124 PWs)   bands (ev):

    -5.4181  -5.4181  -5.4181  -5.4181  -4.0594  -4.0594  -4.0594  -4.0594
    -2.0757  -2.0757  -2.0757  -2.0757   0.6726   0.6726   0.6726   0.6726

     the Fermi energy is     0.7057 ev

!    total energy              =     -99.58090209 Ry
     Harris-Foulkes estimate   =     -99.58090212 Ry
     estimated scf accuracy    <          5.8E-09 Ry

     The total energy is the sum of the following terms:

     one-electron contribution =    -254.05157114 Ry
     hartree contribution      =     132.59299831 Ry
     xc contribution           =     -79.77137125 Ry
     ewald contribution        =     101.64879363 Ry
     smearing contrib. (-TS)   =       0.00024837 Ry

     convergence has been achieved in  12 iterations

     Forces acting on atoms (Ry/au):

     atom    1 type  1   force =     0.00000000    0.00000000    0.00074265
     atom    2 type  1   force =     0.00000000    0.00000000    0.00074269
     atom    3 type  1   force =     0.00000000    0.00000000   -0.00205042
     atom    4 type  1   force =     0.00000000    0.00000000   -0.00205042
     atom    5 type  1   force =     0.00000000    0.00000000    0.00205051
     atom    6 type  1   force =     0.00000000    0.00000000    0.00205047
     atom    7 type  1   force =     0.00000000    0.00000000   -0.00074274
     atom    8 type  1   force =     0.00000000    0.00000000   -0.00074274

     Total force =     0.004362     Total SCF correction =     0.000107


     entering subroutine stress ...

          total   stress  (Ry/bohr**3)                   (kbar)     P=  -15.42
  -0.00014733   0.00000000   0.00000000        -21.67      0.00      0.00
   0.00000000  -0.00014733   0.00000000          0.00    -21.67      0.00
   0.00000000   0.00000000  -0.00001985          0.00      0.00     -2.92


     number of scf cycles    =   9
     number of bfgs steps    =   8

     energy   old            =     -99.5807845511 Ry
     energy   new            =     -99.5809020887 Ry

     CASE: energy  _new < energy  _old

     new trust radius        =       0.0116287651 bohr
     new conv_thr            =       0.0000000118 Ry


ATOMIC_POSITIONS (crystal)
Al       0.000000000   0.000000000  -0.003702944
Al       0.500000000   0.500000000  -0.003702963
Al       0.500000000   0.000000000   0.099142858
Al       0.000000000   0.500000000   0.099142858
Al       0.000000000   0.000000000   0.200857124
Al       0.500000000   0.500000000   0.200857133
Al       0.500000000   0.000000000   0.303702967
Al       0.000000000   0.500000000   0.303702967



     Writing output data file Al_100_2_3.save
     NEW-OLD atomic charge density approx. for the potential

     total cpu time spent up to now is     1443.2 secs

     per-process dynamical memory:   114.5 Mb

     Self-consistent Calculation

     iteration #  1     ecut=    30.00 Ry     beta=0.30
     Davidson diagonalization with overlap
     ethr =  1.00E-06,  avg # of iterations =  3.5

     total cpu time spent up to now is     1466.7 secs

     total energy              =     -99.58095784 Ry
     Harris-Foulkes estimate   =     -99.58096391 Ry
     estimated scf accuracy    <       0.00007701 Ry

     iteration #  2     ecut=    30.00 Ry     beta=0.30
