--------------------------------------------------------------------------
[[17496,1],0]: A high-performance Open MPI point-to-point messaging module
was unable to find any relevant network interfaces:

Module: OpenFabrics (openib)
  Host: ubuntu

Another transport will be used instead, although this may result in
lower performance.
--------------------------------------------------------------------------

     Program PWSCF v.5.1 starts on 27May2020 at 23: 4:39 

     This program is part of the open-source Quantum ESPRESSO suite
     for quantum simulation of materials; please cite
         "P. Giannozzi et al., J. Phys.:Condens. Matter 21 395502 (2009);
          URL http://www.quantum-espresso.org", 
     in publications or presentations arising from this work. More details at
     http://www.quantum-espresso.org/quote

     Parallel version (MPI), running on     1 processors
     Reading input from Al_111_bulk_50.pw.in
Warning: card  &IONS ignored
Warning: card   ION_DYNAMICS = 'BFGS', ignored
Warning: card  / ignored
Warning: card  &CELL ignored
Warning: card  / ignored

     Current dimensions of program PWSCF are:
     Max number of different atomic species (ntypx) = 10
     Max number of k-points (npk) =  40000
     Max angular momentum in pseudopotentials (lmaxx) =  3

     Subspace diagonalization in iterative solution of the eigenvalue problem:
     a serial algorithm will be used

     Found symmetry operation: I + (  0.3333 -0.3333  0.3333)
     This is a supercell, fractional translations are disabled

     G-vector sticks info
     --------------------
     sticks:   dense  smooth     PW     G-vecs:    dense   smooth      PW
     Sum         595     595    253                28891    28891    7727



     bravais-lattice index     =            4
     lattice parameter (alat)  =       7.6050  a.u.
     unit-cell volume          =     933.0478 (a.u.)^3
     number of atoms/cell      =            3
     number of atomic types    =            1
     number of electrons       =         9.00
     number of Kohn-Sham states=            9
     kinetic-energy cutoff     =      50.0000  Ry
     charge density cutoff     =     150.0000  Ry
     convergence threshold     =      1.0E-08
     mixing beta               =       0.3000
     number of iterations used =            8  local-TF  mixing
     Exchange-correlation      =  SLA  PW   PBE  PBE ( 1  4  3  4 0)

     celldm(1)=   7.605000  celldm(2)=   0.000000  celldm(3)=   2.449490
     celldm(4)=   0.000000  celldm(5)=   0.000000  celldm(6)=   0.000000

     crystal axes: (cart. coord. in units of alat)
               a(1) = (   1.000000   0.000000   0.000000 )  
               a(2) = (  -0.500000   0.866025   0.000000 )  
               a(3) = (   0.000000   0.000000   2.449490 )  

     reciprocal axes: (cart. coord. in units 2 pi/alat)
               b(1) = (  1.000000  0.577350 -0.000000 )  
               b(2) = (  0.000000  1.154701  0.000000 )  
               b(3) = (  0.000000 -0.000000  0.408248 )  


     PseudoPot. # 1 for Al read from file:
     ./Al.pbe-n-van.UPF
     MD5 check sum: b11ded24487aef5bc42d5c7a2e22a7b6
     Pseudo is Ultrasoft + core correction, Zval =  3.0
     Generated by new atomic code, or converted to UPF format
     Using radial grid of  893 points,  2 beta functions with: 
                l(1) =   0
                l(2) =   1
     Q(r) pseudized with  8 coefficients,  rinner =    0.900   0.900   0.900


     atomic species   valence    mass     pseudopotential
        Al             3.00    26.98000     Al( 1.00)

     12 Sym. Ops., with inversion, found



   Cartesian axes

     site n.     atom                  positions (alat units)
         1           Al  tau(   1) = (   0.0000000   0.0000000   0.0000000  )
         2           Al  tau(   2) = (  -0.0000000   0.5773503   0.8164966  )
         3           Al  tau(   3) = (   0.5000000   0.2886751   1.6329932  )

     number of k points=   480  Marzari-Vanderbilt smearing, width (Ry)=  0.0250

     Number of k-points >= 100: set verbosity='high' to print them.

     Dense  grid:    28891 G-vectors     FFT dimensions: (  30,  30,  75)

     Largest allocated arrays     est. size (Mb)     dimensions
        Kohn-Sham Wavefunctions         0.77 Mb     (    5608,    9)
        NL pseudopotentials             1.03 Mb     (    5608,   12)
        Each V/rho on FFT grid          1.03 Mb     (   67500)
        Each G-vector array             0.22 Mb     (   28891)
        G-vector shells                 0.01 Mb     (    1099)
     Largest temporary arrays     est. size (Mb)     dimensions
        Auxiliary wavefunctions         3.08 Mb     (    5608,   36)
        Each subspace H/S matrix        0.02 Mb     (      36,   36)
        Each <psi_i|beta_j> matrix      0.00 Mb     (      12,    9)
        Arrays for rho mixing           8.24 Mb     (   67500,    8)

     Initial potential from superposition of free atoms

     starting charge    8.99260, renormalised to    9.00000
     Starting wfc are   12 randomized atomic wfcs

     total cpu time spent up to now is       38.4 secs

     per-process dynamical memory:   397.1 Mb

     Self-consistent Calculation

     iteration #  1     ecut=    50.00 Ry     beta=0.30
     Davidson diagonalization with overlap
     ethr =  1.00E-02,  avg # of iterations =  2.5

     Threshold (ethr) on eigenvalues was too large:
     Diagonalizing with lowered threshold

     Davidson diagonalization with overlap
     ethr =  1.12E-04,  avg # of iterations =  2.8

     total cpu time spent up to now is      207.0 secs

     total energy              =     -37.02468132 Ry
     Harris-Foulkes estimate   =     -37.02527034 Ry
     estimated scf accuracy    <       0.01025950 Ry

     iteration #  2     ecut=    50.00 Ry     beta=0.30
     Davidson diagonalization with overlap
     ethr =  1.14E-04,  avg # of iterations =  1.0

     total cpu time spent up to now is      271.2 secs

     total energy              =     -37.02289979 Ry
     Harris-Foulkes estimate   =     -37.02473806 Ry
     estimated scf accuracy    <       0.00690845 Ry

     iteration #  3     ecut=    50.00 Ry     beta=0.30
     Davidson diagonalization with overlap
     ethr =  7.68E-05,  avg # of iterations =  1.0

     total cpu time spent up to now is      335.5 secs

     total energy              =     -37.02337102 Ry
     Harris-Foulkes estimate   =     -37.02336155 Ry
     estimated scf accuracy    <       0.00001723 Ry

     iteration #  4     ecut=    50.00 Ry     beta=0.30
     Davidson diagonalization with overlap
     c_bands:  1 eigenvalues not converged
     c_bands:  1 eigenvalues not converged
     c_bands:  1 eigenvalues not converged
     ethr =  1.91E-07,  avg # of iterations =  4.2

     total cpu time spent up to now is      448.4 secs

     total energy              =     -37.02341569 Ry
     Harris-Foulkes estimate   =     -37.02341341 Ry
     estimated scf accuracy    <       0.00000390 Ry

     iteration #  5     ecut=    50.00 Ry     beta=0.30
     Davidson diagonalization with overlap
     ethr =  4.34E-08,  avg # of iterations =  1.1

     total cpu time spent up to now is      513.7 secs

     total energy              =     -37.02341594 Ry
     Harris-Foulkes estimate   =     -37.02341593 Ry
     estimated scf accuracy    <       0.00000119 Ry

     iteration #  6     ecut=    50.00 Ry     beta=0.30
     Davidson diagonalization with overlap
     ethr =  1.33E-08,  avg # of iterations =  2.0

     total cpu time spent up to now is      594.8 secs

     total energy              =     -37.02341604 Ry
     Harris-Foulkes estimate   =     -37.02341631 Ry
     estimated scf accuracy    <       0.00000089 Ry

     iteration #  7     ecut=    50.00 Ry     beta=0.30
     Davidson diagonalization with overlap
     ethr =  9.84E-09,  avg # of iterations =  2.0

     total cpu time spent up to now is      674.3 secs

     total energy              =     -37.02341617 Ry
     Harris-Foulkes estimate   =     -37.02341625 Ry
     estimated scf accuracy    <       0.00000035 Ry

     iteration #  8     ecut=    50.00 Ry     beta=0.30
     Davidson diagonalization with overlap
     ethr =  3.93E-09,  avg # of iterations =  1.0

     total cpu time spent up to now is      738.2 secs

     total energy              =     -37.02341617 Ry
     Harris-Foulkes estimate   =     -37.02341618 Ry
     estimated scf accuracy    <       0.00000004 Ry

     iteration #  9     ecut=    50.00 Ry     beta=0.30
     Davidson diagonalization with overlap
     ethr =  4.57E-10,  avg # of iterations =  1.0

     total cpu time spent up to now is      801.4 secs

     End of self-consistent calculation

     Number of k-points >= 100: set verbosity='high' to print the bands.

     the Fermi energy is     0.7139 ev

!    total energy              =     -37.02341618 Ry
     Harris-Foulkes estimate   =     -37.02341618 Ry
     estimated scf accuracy    <          6.2E-10 Ry

     The total energy is the sum of the following terms:

     one-electron contribution =       3.18067468 Ry
     hartree contribution      =       0.36729213 Ry
     xc contribution           =     -29.06076808 Ry
     ewald contribution        =     -11.51001326 Ry
     smearing contrib. (-TS)   =      -0.00060165 Ry

     convergence has been achieved in   9 iterations

     Forces acting on atoms (Ry/au):

     atom    1 type  1   force =    -0.00000000    0.00000000    0.00000000
     atom    2 type  1   force =     0.00000000    0.00000000    0.00000000
     atom    3 type  1   force =     0.00000000    0.00000000   -0.00000000

     Total force =     0.000000     Total SCF correction =     0.000000
     SCF correction compared to forces is large: reduce conv_thr to get better values


     entering subroutine stress ...

          total   stress  (Ry/bohr**3)                   (kbar)     P=  -65.08
  -0.00044218   0.00000000   0.00000000        -65.05      0.00      0.00
   0.00000000  -0.00044218   0.00000000          0.00    -65.05      0.00
   0.00000000   0.00000000  -0.00044289          0.00      0.00    -65.15


     Writing output data file Al_111_bulk.save

     init_run     :     30.26s CPU     38.31s WALL (       1 calls)
     electrons    :    470.68s CPU    763.09s WALL (       1 calls)
     forces       :      2.64s CPU      3.64s WALL (       1 calls)
     stress       :     14.21s CPU     15.94s WALL (       1 calls)

     Called by init_run:
     wfcinit      :     29.59s CPU     37.61s WALL (       1 calls)
     potinit      :      0.09s CPU      0.10s WALL (       1 calls)

     Called by electrons:
     c_bands      :    397.21s CPU    642.48s WALL (      10 calls)
     sum_band     :     72.49s CPU    119.36s WALL (      10 calls)
     v_of_rho     :      0.56s CPU      0.64s WALL (      10 calls)
     newd         :      0.20s CPU      0.22s WALL (      10 calls)
     mix_rho      :      0.28s CPU      0.46s WALL (      10 calls)

     Called by c_bands:
     init_us_2    :      9.07s CPU     14.98s WALL (   11040 calls)
     cegterg      :    390.61s CPU    631.28s WALL (    4800 calls)

     Called by *egterg:
     h_psi        :    355.15s CPU    567.33s WALL (   14254 calls)
     s_psi        :      6.93s CPU     14.09s WALL (   14254 calls)
     g_psi        :      1.15s CPU      1.95s WALL (    8974 calls)
     cdiaghg      :      2.09s CPU      3.23s WALL (   13294 calls)

     Called by h_psi:
     add_vuspsi   :      8.02s CPU     14.10s WALL (   14254 calls)

     General routines
     calbec       :     13.25s CPU     22.53s WALL (   20014 calls)
     fft          :      0.25s CPU      0.39s WALL (     157 calls)
     ffts         :      0.14s CPU      0.28s WALL (     114 calls)
     fftw         :    383.04s CPU    609.74s WALL (  262390 calls)
     davcio       :      0.00s CPU      0.14s WALL (     480 calls)

     Parallel routines
     fft_scatter  :     10.88s CPU     18.90s WALL (  262661 calls)

     PWSCF        :  8m38.52s CPU    13m41.95s WALL


   This run was terminated on:  23:18:21  27May2020            

=------------------------------------------------------------------------------=
   JOB DONE.
=------------------------------------------------------------------------------=
