
     Program PWSCF v.6.4.1 starts on 27May2020 at  6:39:44 

     This program is part of the open-source Quantum ESPRESSO suite
     for quantum simulation of materials; please cite
         "P. Giannozzi et al., J. Phys.:Condens. Matter 21 395502 (2009);
         "P. Giannozzi et al., J. Phys.:Condens. Matter 29 465901 (2017);
          URL http://www.quantum-espresso.org", 
     in publications or presentations arising from this work. More details at
     http://www.quantum-espresso.org/quote

     Parallel version (MPI), running on     1 processors

     MPI processes distributed on     1 nodes
     Reading input from Al_100_bulk_15.pw.in

     Current dimensions of program PWSCF are:
     Max number of different atomic species (ntypx) = 10
     Max number of k-points (npk) =  40000
     Max angular momentum in pseudopotentials (lmaxx) =  3

     Subspace diagonalization in iterative solution of the eigenvalue problem:
     a serial algorithm will be used

     Found symmetry operation: I + ( -0.5000 -0.5000  0.0000)
     This is a supercell, fractional translations are disabled

     G-vector sticks info
     --------------------
     sticks:   dense  smooth     PW     G-vecs:    dense   smooth      PW
     Sum         681     553    177               108981    78237   13301



     bravais-lattice index     =            6
     lattice parameter (alat)  =       7.6050  a.u.
     unit-cell volume          =    3518.7438 (a.u.)^3
     number of atoms/cell      =           20
     number of atomic types    =            1
     number of electrons       =        60.00
     number of Kohn-Sham states=           36
     kinetic-energy cutoff     =      30.0000  Ry
     charge density cutoff     =     150.0000  Ry
     convergence threshold     =      1.0E-06
     mixing beta               =       0.3000
     number of iterations used =            8  local-TF  mixing
     Exchange-correlation      =  SLA  PW   PBE  PBE ( 1  4  3  4 0 0)
     nstep                     =           50


     celldm(1)=   7.605000  celldm(2)=   0.000000  celldm(3)=   8.000000
     celldm(4)=   0.000000  celldm(5)=   0.000000  celldm(6)=   0.000000

     crystal axes: (cart. coord. in units of alat)
               a(1) = (   1.000000   0.000000   0.000000 )  
               a(2) = (   0.000000   1.000000   0.000000 )  
               a(3) = (   0.000000   0.000000   8.000000 )  

     reciprocal axes: (cart. coord. in units 2 pi/alat)
               b(1) = (  1.000000  0.000000  0.000000 )  
               b(2) = (  0.000000  1.000000  0.000000 )  
               b(3) = (  0.000000  0.000000  0.125000 )  


     PseudoPot. # 1 for Al read from file:
     ./Al.pbe-n-van.UPF
     MD5 check sum: b11ded24487aef5bc42d5c7a2e22a7b6
     Pseudo is Ultrasoft + core correction, Zval =  3.0
     Generated by new atomic code, or converted to UPF format
     Using radial grid of  893 points,  2 beta functions with: 
                l(1) =   0
                l(2) =   1
     Q(r) pseudized with  8 coefficients,  rinner =    0.900   0.900   0.900


     atomic species   valence    mass     pseudopotential
        Al             3.00    26.98000     Al( 1.00)

      8 Sym. Ops. (no inversion) found



   Cartesian axes

     site n.     atom                  positions (alat units)
         1           Al  tau(   1) = (   0.0000000   0.0000000   0.0000000  )
         2           Al  tau(   2) = (   0.5000000   0.5000000   0.0000000  )
         3           Al  tau(   3) = (   0.5000000   0.0000000   0.5000000  )
         4           Al  tau(   4) = (   0.0000000   0.5000000   0.5000000  )
         5           Al  tau(   5) = (   0.0000000   0.0000000   1.0000000  )
         6           Al  tau(   6) = (   0.5000000   0.5000000   1.0000000  )
         7           Al  tau(   7) = (   0.5000000   0.0000000   1.5000000  )
         8           Al  tau(   8) = (   0.0000000   0.5000000   1.5000000  )
         9           Al  tau(   9) = (   0.0000000   0.0000000   2.0000000  )
        10           Al  tau(  10) = (   0.5000000   0.5000000   2.0000000  )
        11           Al  tau(  11) = (   0.5000000   0.0000000   2.5000000  )
        12           Al  tau(  12) = (   0.0000000   0.5000000   2.5000000  )
        13           Al  tau(  13) = (   0.0000000   0.0000000   3.0000000  )
        14           Al  tau(  14) = (   0.5000000   0.5000000   3.0000000  )
        15           Al  tau(  15) = (   0.5000000   0.0000000   3.5000000  )
        16           Al  tau(  16) = (   0.0000000   0.5000000   3.5000000  )
        17           Al  tau(  17) = (   0.0000000   0.0000000   4.0000000  )
        18           Al  tau(  18) = (   0.5000000   0.5000000   4.0000000  )
        19           Al  tau(  19) = (   0.5000000   0.0000000   4.5000000  )
        20           Al  tau(  20) = (   0.0000000   0.5000000   4.5000000  )

     number of k points=    45  Marzari-Vanderbilt smearing, width (Ry)=  0.0250
                       cart. coord. in units 2pi/alat
        k(    1) = (   0.0000000   0.0000000   0.0000000), wk =   0.0078125
        k(    2) = (   0.0000000   0.0625000   0.0000000), wk =   0.0312500
        k(    3) = (   0.0000000   0.1250000   0.0000000), wk =   0.0312500
        k(    4) = (   0.0000000   0.1875000   0.0000000), wk =   0.0312500
        k(    5) = (   0.0000000   0.2500000   0.0000000), wk =   0.0312500
        k(    6) = (   0.0000000   0.3125000   0.0000000), wk =   0.0312500
        k(    7) = (   0.0000000   0.3750000   0.0000000), wk =   0.0312500
        k(    8) = (   0.0000000   0.4375000   0.0000000), wk =   0.0312500
        k(    9) = (   0.0000000  -0.5000000   0.0000000), wk =   0.0156250
        k(   10) = (   0.0625000   0.0625000   0.0000000), wk =   0.0312500
        k(   11) = (   0.0625000   0.1250000   0.0000000), wk =   0.0625000
        k(   12) = (   0.0625000   0.1875000   0.0000000), wk =   0.0625000
        k(   13) = (   0.0625000   0.2500000   0.0000000), wk =   0.0625000
        k(   14) = (   0.0625000   0.3125000   0.0000000), wk =   0.0625000
        k(   15) = (   0.0625000   0.3750000   0.0000000), wk =   0.0625000
        k(   16) = (   0.0625000   0.4375000   0.0000000), wk =   0.0625000
        k(   17) = (   0.0625000  -0.5000000   0.0000000), wk =   0.0312500
        k(   18) = (   0.1250000   0.1250000   0.0000000), wk =   0.0312500
        k(   19) = (   0.1250000   0.1875000   0.0000000), wk =   0.0625000
        k(   20) = (   0.1250000   0.2500000   0.0000000), wk =   0.0625000
        k(   21) = (   0.1250000   0.3125000   0.0000000), wk =   0.0625000
        k(   22) = (   0.1250000   0.3750000   0.0000000), wk =   0.0625000
        k(   23) = (   0.1250000   0.4375000   0.0000000), wk =   0.0625000
        k(   24) = (   0.1250000  -0.5000000   0.0000000), wk =   0.0312500
        k(   25) = (   0.1875000   0.1875000   0.0000000), wk =   0.0312500
        k(   26) = (   0.1875000   0.2500000   0.0000000), wk =   0.0625000
        k(   27) = (   0.1875000   0.3125000   0.0000000), wk =   0.0625000
        k(   28) = (   0.1875000   0.3750000   0.0000000), wk =   0.0625000
        k(   29) = (   0.1875000   0.4375000   0.0000000), wk =   0.0625000
        k(   30) = (   0.1875000  -0.5000000   0.0000000), wk =   0.0312500
        k(   31) = (   0.2500000   0.2500000   0.0000000), wk =   0.0312500
        k(   32) = (   0.2500000   0.3125000   0.0000000), wk =   0.0625000
        k(   33) = (   0.2500000   0.3750000   0.0000000), wk =   0.0625000
        k(   34) = (   0.2500000   0.4375000   0.0000000), wk =   0.0625000
        k(   35) = (   0.2500000  -0.5000000   0.0000000), wk =   0.0312500
        k(   36) = (   0.3125000   0.3125000   0.0000000), wk =   0.0312500
        k(   37) = (   0.3125000   0.3750000   0.0000000), wk =   0.0625000
        k(   38) = (   0.3125000   0.4375000   0.0000000), wk =   0.0625000
        k(   39) = (   0.3125000  -0.5000000   0.0000000), wk =   0.0312500
        k(   40) = (   0.3750000   0.3750000   0.0000000), wk =   0.0312500
        k(   41) = (   0.3750000   0.4375000   0.0000000), wk =   0.0625000
        k(   42) = (   0.3750000  -0.5000000   0.0000000), wk =   0.0312500
        k(   43) = (   0.4375000   0.4375000   0.0000000), wk =   0.0312500
        k(   44) = (   0.4375000  -0.5000000   0.0000000), wk =   0.0312500
        k(   45) = (  -0.5000000  -0.5000000   0.0000000), wk =   0.0078125

     Dense  grid:   108981 G-vectors     FFT dimensions: (  30,  30, 240)

     Smooth grid:    78237 G-vectors     FFT dimensions: (  27,  27, 216)

     Estimated max dynamical RAM per process >     444.21 MB

     Initial potential from superposition of free atoms

     starting charge   59.95069, renormalised to   60.00000

     negative rho (up, down):  2.741E-05 0.000E+00
     Starting wfcs are   80 randomized atomic wfcs

     total cpu time spent up to now is      135.4 secs

     Self-consistent Calculation

     iteration #  1     ecut=    30.00 Ry     beta= 0.30
     Davidson diagonalization with overlap
     ethr =  1.00E-02,  avg # of iterations =  2.7

     total cpu time spent up to now is      353.6 secs

     total energy              =    -249.24612881 Ry
     Harris-Foulkes estimate   =    -249.29791983 Ry
     estimated scf accuracy    <       1.80821956 Ry

     iteration #  2     ecut=    30.00 Ry     beta= 0.30
     Davidson diagonalization with overlap
     ethr =  3.01E-03,  avg # of iterations =  1.0

     total cpu time spent up to now is      488.6 secs

     total energy              =    -249.08187577 Ry
     Harris-Foulkes estimate   =    -249.26144925 Ry
     estimated scf accuracy    <       1.32399787 Ry

     iteration #  3     ecut=    30.00 Ry     beta= 0.30
     Davidson diagonalization with overlap
     ethr =  2.21E-03,  avg # of iterations =  2.0

     total cpu time spent up to now is      633.9 secs

     total energy              =    -249.15877715 Ry
     Harris-Foulkes estimate   =    -249.19069992 Ry
     estimated scf accuracy    <       0.25716689 Ry

     iteration #  4     ecut=    30.00 Ry     beta= 0.30
     Davidson diagonalization with overlap
     ethr =  4.29E-04,  avg # of iterations =  2.4

     total cpu time spent up to now is      779.8 secs

     total energy              =    -249.17369561 Ry
     Harris-Foulkes estimate   =    -249.17464049 Ry
     estimated scf accuracy    <       0.02072004 Ry

     iteration #  5     ecut=    30.00 Ry     beta= 0.30
     Davidson diagonalization with overlap
     ethr =  3.45E-05,  avg # of iterations =  4.4

     total cpu time spent up to now is      942.7 secs

     total energy              =    -249.16927773 Ry
     Harris-Foulkes estimate   =    -249.17513286 Ry
     estimated scf accuracy    <       0.02729365 Ry

     iteration #  6     ecut=    30.00 Ry     beta= 0.30
     Davidson diagonalization with overlap
     ethr =  3.45E-05,  avg # of iterations =  1.6

     total cpu time spent up to now is     1080.2 secs

     total energy              =    -249.17030899 Ry
     Harris-Foulkes estimate   =    -249.17036720 Ry
     estimated scf accuracy    <       0.03758222 Ry

     iteration #  7     ecut=    30.00 Ry     beta= 0.30
     Davidson diagonalization with overlap
     ethr =  3.45E-05,  avg # of iterations =  2.2

     negative rho (up, down):  1.156E-03 0.000E+00

     total cpu time spent up to now is     1221.1 secs

     total energy              =    -249.16259186 Ry
     Harris-Foulkes estimate   =    -249.17110962 Ry
     estimated scf accuracy    <       0.08975499 Ry

     iteration #  8     ecut=    30.00 Ry     beta= 0.30
     Davidson diagonalization with overlap
     ethr =  3.45E-05,  avg # of iterations =  3.2

     negative rho (up, down):  9.143E-03 0.000E+00

     total cpu time spent up to now is     1385.2 secs

     total energy              =    -249.16747611 Ry
     Harris-Foulkes estimate   =    -249.16752469 Ry
     estimated scf accuracy    <       0.01122560 Ry

     iteration #  9     ecut=    30.00 Ry     beta= 0.30
     Davidson diagonalization with overlap
     ethr =  1.87E-05,  avg # of iterations =  1.6

     negative rho (up, down):  3.972E-03 0.000E+00

     total cpu time spent up to now is     1523.3 secs

     total energy              =    -249.16750621 Ry
     Harris-Foulkes estimate   =    -249.16763442 Ry
     estimated scf accuracy    <       0.01726144 Ry

     iteration # 10     ecut=    30.00 Ry     beta= 0.30
     Davidson diagonalization with overlap
     ethr =  1.87E-05,  avg # of iterations =  1.6

     negative rho (up, down):  4.077E-03 0.000E+00

     total cpu time spent up to now is     1660.3 secs

     total energy              =    -249.16737751 Ry
     Harris-Foulkes estimate   =    -249.16792168 Ry
     estimated scf accuracy    <       0.01320782 Ry

     iteration # 11     ecut=    30.00 Ry     beta= 0.30
     Davidson diagonalization with overlap
     ethr =  1.87E-05,  avg # of iterations =  1.0

     negative rho (up, down):  2.147E-05 0.000E+00

     total cpu time spent up to now is     1797.1 secs

     total energy              =    -249.16672988 Ry
     Harris-Foulkes estimate   =    -249.16748834 Ry
     estimated scf accuracy    <       0.00647899 Ry

     iteration # 12     ecut=    30.00 Ry     beta= 0.30
     Davidson diagonalization with overlap
     ethr =  1.08E-05,  avg # of iterations =  2.2

     negative rho (up, down):  3.622E-05 0.000E+00

     total cpu time spent up to now is     1949.8 secs

     total energy              =    -249.16726508 Ry
     Harris-Foulkes estimate   =    -249.16734032 Ry
     estimated scf accuracy    <       0.00081798 Ry

     iteration # 13     ecut=    30.00 Ry     beta= 0.30
     Davidson diagonalization with overlap
     ethr =  1.36E-06,  avg # of iterations =  2.3

     negative rho (up, down):  2.526E-05 0.000E+00

     total cpu time spent up to now is     2102.4 secs

     total energy              =    -249.16734106 Ry
     Harris-Foulkes estimate   =    -249.16729393 Ry
     estimated scf accuracy    <       0.00025100 Ry

     iteration # 14     ecut=    30.00 Ry     beta= 0.30
     Davidson diagonalization with overlap
     ethr =  4.18E-07,  avg # of iterations =  2.6

     negative rho (up, down):  2.476E-06 0.000E+00

     total cpu time spent up to now is     2250.1 secs

     total energy              =    -249.16723846 Ry
     Harris-Foulkes estimate   =    -249.16735569 Ry
     estimated scf accuracy    <       0.00105917 Ry

     iteration # 15     ecut=    30.00 Ry     beta= 0.30
     Davidson diagonalization with overlap
     ethr =  4.18E-07,  avg # of iterations =  3.1

     negative rho (up, down):  5.297E-05 0.000E+00

     total cpu time spent up to now is     2421.1 secs

     total energy              =    -249.16731052 Ry
     Harris-Foulkes estimate   =    -249.16730814 Ry
     estimated scf accuracy    <       0.00004193 Ry

     iteration # 16     ecut=    30.00 Ry     beta= 0.30
     Davidson diagonalization with overlap
     ethr =  6.99E-08,  avg # of iterations =  2.8

     negative rho (up, down):  2.010E-05 0.000E+00

     total cpu time spent up to now is     2580.4 secs

     total energy              =    -249.16730656 Ry
     Harris-Foulkes estimate   =    -249.16731563 Ry
     estimated scf accuracy    <       0.00021616 Ry

     iteration # 17     ecut=    30.00 Ry     beta= 0.30
     Davidson diagonalization with overlap
     ethr =  6.99E-08,  avg # of iterations =  1.0

     total cpu time spent up to now is     2715.9 secs

     total energy              =    -249.16730852 Ry
     Harris-Foulkes estimate   =    -249.16730791 Ry
     estimated scf accuracy    <       0.00010763 Ry

     iteration # 18     ecut=    30.00 Ry     beta= 0.30
     Davidson diagonalization with overlap
     ethr =  6.99E-08,  avg # of iterations =  1.0

     total cpu time spent up to now is     2851.1 secs

     total energy              =    -249.16729764 Ry
     Harris-Foulkes estimate   =    -249.16730873 Ry
     estimated scf accuracy    <       0.00013248 Ry

     iteration # 19     ecut=    30.00 Ry     beta= 0.30
     Davidson diagonalization with overlap
     ethr =  6.99E-08,  avg # of iterations =  2.2

     total cpu time spent up to now is     3010.1 secs

     total energy              =    -249.16730456 Ry
     Harris-Foulkes estimate   =    -249.16730298 Ry
     estimated scf accuracy    <       0.00000217 Ry

     iteration # 20     ecut=    30.00 Ry     beta= 0.30
     Davidson diagonalization with overlap
     ethr =  3.62E-09,  avg # of iterations =  3.0

     total cpu time spent up to now is     3159.7 secs

     End of self-consistent calculation

          k = 0.0000 0.0000 0.0000 (  9779 PWs)   bands (ev):

    -7.7088  -7.4460  -7.0230  -6.4363  -5.6864  -4.7875  -3.7486  -2.5726
    -1.2692   0.2284   0.5790   0.5790   0.8207   0.8207   1.0303   1.2096
     1.2096   1.7506   1.7506   1.9388   1.9388   2.1896   2.1896   2.4463
     2.4463   2.5885   2.5885   3.1226   3.1226   3.1526   3.2856   3.2856
     3.9243   3.9243   4.2631   4.2631

          k = 0.0000 0.0625 0.0000 (  9815 PWs)   bands (ev):

    -7.6730  -7.4102  -6.9874  -6.4008  -5.6511  -4.7524  -3.7137  -2.5378
    -1.2345   0.0059   0.2520   0.2629   0.6117   0.6479   0.8533   1.0635
     1.1969   1.2423   1.7836   1.8957   1.9735   2.2279   2.4792   2.5727
     2.5768   2.7828   2.8405   3.1161   3.1857   3.2690   3.3185   3.6556
     3.7883   4.0913   4.2960   4.4135

          k = 0.0000 0.1250 0.0000 (  9819 PWs)   bands (ev):

    -7.5657  -7.3031  -6.8806  -6.2944  -5.5451  -4.6470  -3.6090  -2.4340
    -1.1317  -0.8997  -0.6495  -0.2478   0.3092   0.3651   0.7099   0.9516
     1.0206   1.1628   1.3409   1.8629   1.8824   2.0785   2.3158   2.5781
     2.7472   2.8412   3.2850   3.3941   3.4171   3.6610   3.8833   4.0260
     4.0705   4.2665   4.3942   4.8924

          k = 0.0000 0.1875 0.0000 (  9823 PWs)   bands (ev):

    -7.3870  -7.1247  -6.7027  -6.1172  -5.3687  -4.4716  -3.4345  -2.2604
    -1.8004  -1.5469  -1.1410  -0.9600  -0.5781   0.1409   0.5356   0.8739
     1.0004   1.1160   1.3281   1.5052   1.9748   2.0465   2.2422   2.5205
     2.7421   2.8223   3.2831   3.4489   3.5356   3.5813   4.2284   4.4179
     4.5584   4.8570   4.9771   5.0417

          k = 0.0000 0.2500 0.0000 (  9797 PWs)   bands (ev):

    -7.1372  -6.8753  -6.4539  -5.8693  -5.1221  -4.2263  -3.1907  -2.6520
    -2.3974  -2.0186  -1.9880  -1.4204  -0.7204  -0.6956   0.1724   0.7738
     1.1041   1.1712   1.3462   1.5601   1.7355   2.2592   2.2765   2.5065
     2.7169   2.9718   3.2384   3.6458   3.6754   3.7726   3.8107   4.4620
     4.7876   5.0740   5.1864   5.2817

          k = 0.0000 0.3125 0.0000 (  9769 PWs)   bands (ev):

    -6.8166  -6.5552  -6.1347  -5.5513  -4.8055  -3.9113  -3.4444  -3.1885
    -2.8778  -2.7771  -2.2063  -1.7081  -1.4766  -0.6024  -0.4127   0.4062
     1.0788   1.3995   1.5394   1.6416   1.8573   2.0305   2.5719   2.6960
     2.7766   3.2197   3.2677   3.5197   3.9558   4.0706   4.1068   4.3145
     4.5542   4.7960   4.8157   4.9820

          k = 0.0000 0.3750 0.0000 (  9732 PWs)   bands (ev):

    -6.4256  -6.1649  -5.7455  -5.1636  -4.4196  -4.1742  -3.9171  -3.5274
    -3.5035  -2.9296  -2.4960  -2.1961  -1.3292  -1.3171  -0.3020  -0.0382
     0.8435   1.4490   1.7611   2.0033   2.0956   2.2207   2.3924   2.9337
     3.0665   3.4936   3.6294   3.7240   3.8639   3.8861   4.1058   4.2614
     4.2859   4.4679   4.4789   4.4946

          k = 0.0000 0.4375 0.0000 (  9756 PWs)   bands (ev):

    -5.9652  -5.7052  -5.2870  -4.8384  -4.7068  -4.5802  -4.1650  -3.9650
    -3.5888  -3.0754  -2.8521  -2.0470  -1.9690  -0.9487  -0.8839   0.2042
     0.4025   1.4749   1.8825   2.1879   2.4300   2.6487   2.8191   2.8882
     3.2395   3.3607   3.4815   3.6902   3.6998   3.8702   3.9179   4.0560
     4.3177   4.4101   4.4115   4.9183

          k = 0.0000-0.5000 0.0000 (  9786 PWs)   bands (ev):

    -5.4358  -5.4358  -5.1767  -5.1767  -4.7599  -4.7599  -4.1816  -4.1816
    -3.4421  -3.4421  -2.5554  -2.5554  -1.5308  -1.5308  -0.3723  -0.3723
     0.9079   0.9079   2.3730   2.3730   2.6809   2.6809   2.9228   2.9228
     3.1406   3.1406   3.3116   3.3116   3.8533   3.8533   4.0999   4.0999
     4.3962   4.3963   4.5484   4.5484

          k = 0.0625 0.0625 0.0000 (  9809 PWs)   bands (ev):

    -7.6372  -7.3745  -6.9518  -6.3653  -5.6158  -4.7173  -3.6788  -2.5031
    -1.2002   0.0392   0.0392   0.2852   0.2852   0.2971   0.6807   0.6807
     1.0966   1.2295   1.2295   1.9363   1.9363   2.6044   2.6044   2.7801
     2.7801   2.8505   2.8505   3.2187   3.2608   3.2608   3.6720   3.6720
     3.9212   3.9212   4.5659   4.5659

          k = 0.0625 0.1250 0.0000 (  9834 PWs)   bands (ev):

    -7.5300  -7.2674  -6.8450  -6.2589  -5.5098  -4.6119  -3.5741  -2.3992
    -1.0976  -0.8657  -0.6161  -0.2145   0.1390   0.3417   0.3853   0.3990
     0.7816   1.0455   1.1958   1.3441   1.8806   2.0772   2.7064   2.8357
     2.8908   3.0218   3.3173   3.3392   3.6915   3.8240   3.9510   3.9732
     4.1004   4.3232   4.5827   4.8493

          k = 0.0625 0.1875 0.0000 (  9834 PWs)   bands (ev):

    -7.3513  -7.0890  -6.6671  -6.0818  -5.3335  -4.4365  -3.3997  -2.2260
    -1.7659  -1.5130  -1.1072  -0.9260  -0.5446   0.1726   0.3061   0.5530
     0.5694   0.9216   1.0640   1.3612   1.4945   2.0445   2.2154   2.8600
     3.0567   3.1245   3.1252   3.4792   3.6337   4.0384   4.1239   4.4615
     4.8055   4.8878   4.9937   5.1367

          k = 0.0625 0.2500 0.0000 (  9795 PWs)   bands (ev):

    -7.1016  -6.8397  -6.4184  -5.8340  -5.0869  -4.1913  -3.1558  -2.6174
    -2.3626  -1.9838  -1.9535  -1.3866  -0.6862  -0.6621   0.2040   0.5402
     0.7814   0.8073   1.1836   1.2061   1.5931   1.7513   2.3399   2.4484
     3.1081   3.2530   3.3072   3.6968   3.7471   3.8195   4.2667   4.3610
     4.8239   4.9448   4.9878   5.1879

          k = 0.0625 0.3125 0.0000 (  9745 PWs)   bands (ev):

    -6.7810  -6.5197  -6.0993  -5.5160  -4.7704  -3.8765  -3.4097  -3.1538
    -2.8431  -2.7424  -2.1718  -1.6735  -1.4423  -0.5688  -0.3787   0.4367
     0.8387   1.0892   1.1118   1.4360   1.6378   1.8905   2.0424   2.7440
     2.8215   3.3788   3.5914   3.7406   3.8543   4.1133   4.2028   4.2610
     4.3480   4.6113   4.6554   4.6641

          k = 0.0625 0.3750 0.0000 (  9755 PWs)   bands (ev):

    -6.3902  -6.1295  -5.7102  -5.1284  -4.3846  -4.1393  -3.8822  -3.4927
    -3.4688  -2.8951  -2.4617  -2.1617  -1.2953  -1.2831  -0.2688  -0.0045
     0.8712   1.2086   1.4449   1.4808   1.8630   2.1588   2.2533   2.4070
     3.1043   3.3231   3.4846   3.5793   3.9449   3.9563   3.9740   4.0774
     4.3635   4.3836   4.4772   4.5213

          k = 0.0625 0.4375 0.0000 (  9745 PWs)   bands (ev):

    -5.9298  -5.6699  -5.2518  -4.8033  -4.6717  -4.5452  -4.1302  -3.9300
    -3.5541  -3.0406  -2.8174  -2.0127  -1.9344  -0.9147  -0.8499   0.2370
     0.4356   1.4912   1.6346   1.9071   1.9160   2.2910   2.6799   2.7174
     2.8369   2.9563   2.9755   3.3489   3.5449   3.7251   3.8967   4.2457
     4.3939   4.5025   4.5833   4.7083

          k = 0.0625-0.5000 0.0000 (  9778 PWs)   bands (ev):

    -5.4006  -5.4006  -5.1415  -5.1415  -4.7248  -4.7248  -4.1467  -4.1467
    -3.4073  -3.4073  -2.5208  -2.5208  -1.4964  -1.4964  -0.3385  -0.3385
     0.9394   0.9394   2.1000   2.1000   2.3956   2.3956   2.4614   2.4614
     2.7872   2.7872   3.1667   3.1667   3.3411   3.3411   4.0366   4.0366
     4.6337   4.6337   4.8823   4.8824

          k = 0.1250 0.1250 0.0000 (  9813 PWs)   bands (ev):

    -7.4227  -7.1603  -6.7382  -6.1526  -5.4040  -4.5066  -3.4693  -2.2950
    -0.9944  -0.7641  -0.7641  -0.5147  -0.5147  -0.1141  -0.1141   0.4410
     0.4410   0.5013   1.1622   1.1622   1.2950   2.0299   2.0299   3.0061
     3.0061   3.4128   3.7824   3.7824   4.0238   4.0238   4.1005   4.1005
     4.5199   4.5199   4.9965   4.9967

          k = 0.1250 0.1875 0.0000 (  9816 PWs)   bands (ev):

    -7.2442  -6.9822  -6.5605  -5.9755  -5.2277  -4.3314  -3.2951  -2.1221
    -1.6626  -1.4104  -1.0055  -0.8232  -0.5952  -0.4446  -0.3459   0.0555
     0.2637   0.6296   0.6710   1.1136   1.3731   1.4605   2.1382   2.2047
     3.1491   3.2932   3.5628   3.9577   4.1275   4.2889   4.6457   4.6468
     4.7929   4.8483   4.9939   5.1766

          k = 0.1250 0.2500 0.0000 (  9780 PWs)   bands (ev):

    -6.9947  -6.7330  -6.3120  -5.7279  -4.9813  -4.0862  -3.0514  -2.5136
    -2.2589  -1.8804  -1.8506  -1.2845  -0.5840  -0.5627  -0.3583  -0.1084
     0.2322   0.3705   0.8418   0.9079   1.3390   1.5776   1.6919   2.4274
     2.4534   3.4175   3.6657   3.6767   4.1109   4.1472   4.1657   4.5008
     4.5492   4.5592   4.8753   5.1009

          k = 0.1250 0.3125 0.0000 (  9759 PWs)   bands (ev):

    -6.6744  -6.4132  -5.9931  -5.4102  -4.6651  -3.7718  -3.3056  -3.0498
    -2.7391  -2.6386  -2.0685  -1.5704  -1.3400  -0.4696  -0.2769  -0.0534
     0.1868   0.5441   0.5974   1.1758   1.2103   1.6973   1.8792   1.9888
     2.7139   2.9661   3.1407   3.4074   3.7031   3.8055   4.1805   4.2696
     4.3572   4.6823   4.7781   4.7949

          k = 0.1250 0.3750 0.0000 (  9737 PWs)   bands (ev):

    -6.2838  -6.0233  -5.6043  -5.0229  -4.2796  -4.0345  -3.7775  -3.3882
    -3.3643  -2.7911  -2.3579  -2.0583  -1.1926  -1.1807  -0.1705   0.0965
     0.3144   0.5691   0.8789   1.0865   1.5356   1.5703   2.2427   2.2599
     2.3499   2.4790   2.7191   3.0980   3.1149   3.6670   3.6814   4.1203
     4.3542   4.4398   4.5328   4.8862

          k = 0.1250 0.4375 0.0000 (  9737 PWs)   bands (ev):

    -5.8238  -5.5640  -5.1462  -4.6981  -4.5665  -4.4401  -4.0254  -3.8252
    -3.4497  -2.9363  -2.7134  -1.9091  -1.8313  -0.8132  -0.7478   0.3314
     0.5340   0.7559   0.9898   1.4220   1.6420   1.7590   1.9700   2.0910
     2.0991   2.4851   2.6688   2.7720   3.0433   3.1056   3.5080   3.7439
     3.8557   4.5253   4.5959   4.9063

          k = 0.1250-0.5000 0.0000 (  9742 PWs)   bands (ev):

    -5.2949  -5.2949  -5.0360  -5.0360  -4.6196  -4.6196  -4.0419  -4.0419
    -3.3030  -3.3030  -2.4170  -2.4170  -1.3937  -1.3937  -0.2380  -0.2380
     1.0215   1.0215   1.2495   1.2495   1.5432   1.5432   1.9197   1.9197
     2.4689   2.4689   2.5383   2.5383   3.1854   3.1854   3.2669   3.2669
     4.0415   4.0415   4.9999   4.9999

          k = 0.1875 0.1875 0.0000 (  9787 PWs)   bands (ev):

    -7.0659  -6.8041  -6.3830  -5.7986  -5.0516  -4.1562  -3.1211  -1.9497
    -1.4916  -1.4916  -1.2400  -1.2400  -0.8360  -0.8360  -0.6525  -0.2768
    -0.2768   0.4519   0.4519   0.8399   1.3271   1.3271   1.6257   2.3153
     2.3153   3.4398   3.4398   3.6006   4.0668   4.0979   4.5122   4.6643
     4.6643   5.0537   5.1394   5.1394

          k = 0.1875 0.2500 0.0000 (  9764 PWs)   bands (ev):

    -6.8167  -6.5553  -6.1347  -5.5513  -4.8055  -3.9113  -2.8778  -2.3407
    -2.0870  -1.7082  -1.6796  -1.2528  -1.1151  -1.0015  -0.5969  -0.4135
    -0.4026  -0.0175   0.4566   0.7272   1.0745   1.4841   1.5691   1.8564
     2.5121   2.6670   3.0295   3.2997   3.6353   3.6991   3.9235   4.0615
     4.2521   4.8612   4.9625   5.2332

          k = 0.1875 0.3125 0.0000 (  9765 PWs)   bands (ev):

    -6.4968  -6.2359  -5.8162  -5.2340  -4.4897  -3.5972  -3.1321  -2.8765
    -2.5656  -2.4659  -1.8970  -1.3987  -1.1715  -0.9456  -0.6939  -0.3631
    -0.2211  -0.1078   0.2629   0.7396   1.0023   1.3671   1.8577   1.8630
     2.1512   2.3068   2.5478   2.8548   2.9449   3.1187   3.4986   3.9879
     4.1840   4.3576   4.5403   5.0504

          k = 0.1875 0.3750 0.0000 (  9744 PWs)   bands (ev):

    -6.1068  -5.8465  -5.4278  -4.8471  -4.1045  -3.8602  -3.6034  -3.2143
    -3.1907  -2.6184  -2.1853  -1.8868  -1.0217  -1.0124  -0.5710  -0.3300
     0.0077   0.0847   0.2629   0.6652   1.1641   1.3739   1.5082   1.8430
     1.8533   2.2084   2.2490   2.4500   2.5077   2.8091   3.2050   3.5116
     3.9145   4.2938   4.3668   4.6943

          k = 0.1875 0.4375 0.0000 (  9716 PWs)   bands (ev):

    -5.6472  -5.3877  -4.9703  -4.5229  -4.3913  -4.2652  -3.8509  -3.6509
    -3.2758  -2.7630  -2.5407  -1.7371  -1.6600  -0.6461  -0.5785  -0.1330
     0.1233   0.4218   0.6291   0.6849   0.9403   1.0954   1.2364   1.6148
     1.7961   1.8059   2.1661   2.2080   2.6655   2.8866   2.9373   3.2395
     3.6992   3.7467   3.9835   4.7094

          k = 0.1875-0.5000 0.0000 (  9738 PWs)   bands (ev):

    -5.1190  -5.1190  -4.8603  -4.8603  -4.4443  -4.4443  -3.8672  -3.8672
    -3.1292  -3.1292  -2.2444  -2.2444  -1.2230  -1.2230  -0.0747  -0.0747
     0.3781   0.3781   0.6122   0.6122   1.0481   1.0481   1.2421   1.2421
     1.5991   1.5991   2.2985   2.2985   2.7174   2.7174   3.1380   3.1380
     3.4684   3.4684   4.1670   4.1670

          k = 0.2500 0.2500 0.0000 (  9759 PWs)   bands (ev):

    -6.5678  -6.3067  -5.8868  -5.3044  -4.5598  -3.6670  -2.6350  -2.0998
    -2.0998  -1.8467  -1.8467  -1.4674  -1.4405  -1.4405  -0.8779  -0.8779
    -0.1758  -0.1446  -0.1446   0.7326   0.7326   1.2994   1.7271   1.7271
     2.0855   2.2471   2.4882   2.8608   2.8608   2.8855   3.4401   4.1160
     4.1160   4.1249   4.2966   4.9930

          k = 0.2500 0.3125 0.0000 (  9760 PWs)   bands (ev):

    -6.2485  -5.9879  -5.5689  -4.9877  -4.2445  -3.3534  -2.8893  -2.6343
    -2.3235  -2.2250  -1.7913  -1.6578  -1.5383  -1.1588  -1.1316  -0.9415
    -0.5495  -0.0752   0.1270   0.1935   0.9494   1.0453   1.3800   1.7123
     1.7292   1.9860   2.1253   2.1462   2.3752   2.6868   3.1172   3.3904
     3.4133   4.2468   4.3588   4.5589

          k = 0.2500 0.3750 0.0000 (  9712 PWs)   bands (ev):

    -5.8591  -5.5992  -5.1813  -4.6015  -3.8599  -3.6162  -3.3599  -2.9710
    -2.9481  -2.3769  -1.9439  -1.6485  -1.4134  -1.1607  -0.8320  -0.7834
    -0.6904  -0.1981   0.2669   0.4827   0.5417   0.7491   1.0454   1.3963
     1.4011   1.4249   1.9775   2.0074   2.4023   2.6591   2.7000   2.7393
     3.5402   3.5620   4.1024   4.5252

          k = 0.2500 0.4375 0.0000 (  9748 PWs)   bands (ev):

    -5.4004  -5.1412  -4.7245  -4.2780  -4.1464  -4.0208  -3.6071  -3.4070
    -3.0331  -2.5206  -2.2995  -1.4973  -1.4223  -0.9690  -0.7272  -0.3978
    -0.3463  -0.3105   0.1185   0.2703   0.3532   0.7591   0.7898   0.9724
     0.9832   1.3427   1.8176   2.0429   2.0539   2.4526   2.8190   2.8833
     3.2078   3.5287   3.9079   3.9180

          k = 0.2500-0.5000 0.0000 (  9726 PWs)   bands (ev):

    -4.8731  -4.8731  -4.6148  -4.6148  -4.1994  -4.1994  -3.6231  -3.6231
    -2.8863  -2.8863  -2.0035  -2.0035  -0.9869  -0.9869  -0.4617  -0.4617
    -0.2048  -0.2048   0.0916   0.0916   0.2940   0.2940   0.7702   0.7702
     1.4611   1.4611   1.4833   1.4833   2.3458   2.3458   2.9098   2.9098
     3.3844   3.3844   3.6546   3.6546

          k = 0.3125 0.3125 0.0000 (  9744 PWs)   bands (ev):

    -5.9299  -5.6698  -5.2517  -4.6716  -3.9297  -3.0404  -2.5779  -2.5779
    -2.3240  -2.3240  -2.0127  -1.9161  -1.9161  -1.3509  -1.3509  -0.8516
    -0.6142  -0.6142   0.2634   0.2634   0.4149   0.6843   0.9807   1.2625
     1.2625   1.3609   1.9135   1.9398   2.4013   2.4013   2.6366   2.6725
     3.4991   3.6635   3.6635   4.4625

          k = 0.3125 0.3750 0.0000 (  9736 PWs)   bands (ev):

    -5.5413  -5.2820  -4.8649  -4.2863  -3.5462  -3.3032  -3.0477  -2.6593
    -2.6370  -2.1991  -2.0681  -1.9452  -1.6350  -1.5370  -1.3486  -0.9537
    -0.4823  -0.4763  -0.2129  -0.0126   0.2227   0.5448   0.6471   0.6590
     0.8370   1.2129   1.5861   1.7506   1.9136   2.3191   2.7224   2.7543
     3.0221   3.0771   3.7913   3.9693

          k = 0.3125 0.4375 0.0000 (  9760 PWs)   bands (ev):

    -5.0836  -4.8250  -4.4091  -3.9637  -3.8321  -3.7069  -3.2940  -3.0945
    -2.7216  -2.2106  -1.9915  -1.7517  -1.4979  -1.1921  -1.1694  -1.0296
    -0.6611  -0.5312  -0.4035  -0.1070  -0.0738   0.0907   0.2077   0.5722
     1.0601   1.0699   1.2587   1.2868   2.0741   2.1509   2.3269   2.7097
     3.1919   3.2155   3.4572   3.7761

          k = 0.3125-0.5000 0.0000 (  9722 PWs)   bands (ev):

    -4.5574  -4.5574  -4.2997  -4.2997  -3.8852  -3.8852  -3.3101  -3.3101
    -2.5753  -2.5753  -1.6964  -1.6964  -1.2376  -1.2376  -0.9947  -0.9947
    -0.6694  -0.6694  -0.5769  -0.5769   0.0033   0.0033   0.4878   0.4878
     0.7193   0.7193   1.5536   1.5536   1.7882   1.7882   2.5581   2.5581
     3.2662   3.2662   3.6479   3.6479

          k = 0.3750 0.3750 0.0000 (  9732 PWs)   bands (ev):

    -5.1539  -4.8952  -4.4792  -3.9020  -3.1640  -2.9215  -2.9215  -2.6669
    -2.6669  -2.2797  -2.2578  -2.2578  -1.6913  -1.6913  -1.2607  -0.9526
    -0.9526  -0.7275  -0.4697  -0.1733  -0.0748  -0.0748   0.0226   0.5061
     0.9279   0.9279   1.1912   1.2211   2.0700   2.0700   2.0858   2.6430
     3.1277   3.3360   3.3360   3.3914

          k = 0.3750 0.4375 0.0000 (  9737 PWs)   bands (ev):

    -4.6974  -4.4394  -4.0246  -3.5803  -3.4490  -3.3244  -2.9129  -2.7136
    -2.4726  -2.3427  -2.2181  -1.8339  -1.8090  -1.6213  -1.3725  -1.2253
    -1.1292  -0.8055  -0.7453  -0.7108  -0.4864  -0.1312   0.2728   0.3517
     0.3795   0.5861   1.3177   1.4207   1.4846   1.6546   2.4270   2.4571
     2.7586   3.1338   3.5175   3.7070

          k = 0.3750-0.5000 0.0000 (  9724 PWs)   bands (ev):

    -4.1727  -4.1727  -3.9155  -3.9155  -3.5020  -3.5020  -2.9289  -2.9289
    -2.1977  -2.1977  -1.9554  -1.9554  -1.7011  -1.7011  -1.3722  -1.3722
    -1.2341  -1.2341  -0.7321  -0.7321  -0.2790  -0.2790   0.0058   0.0058
     0.8579   0.8579   0.8699   0.8699   1.8762   1.8762   2.1268   2.1268
     3.0194   3.0194   3.5785   3.5785

          k = 0.4375 0.4375 0.0000 (  9776 PWs)   bands (ev):

    -4.2425  -3.9852  -3.5716  -3.1289  -3.1289  -2.9981  -2.8737  -2.8737
    -2.4639  -2.4639  -2.2665  -2.0238  -1.8960  -1.8960  -1.7693  -1.4401
    -1.3026  -1.1566  -1.1566  -0.7992  -0.3477  -0.2788  -0.2788  -0.0620
     0.7258   0.7258   0.7900   0.8026   1.8095   1.8697   1.8697   2.0595
     2.9531   3.1380   3.1380   3.5120

          k = 0.4375-0.5000 0.0000 (  9754 PWs)   bands (ev):

    -3.7193  -3.7193  -3.4628  -3.4628  -3.0510  -3.0510  -2.6099  -2.6099
    -2.4802  -2.4802  -2.3553  -2.3553  -1.9459  -1.9459  -1.7576  -1.7576
    -1.3617  -1.3617  -0.8799  -0.8799  -0.6239  -0.6239   0.1364   0.1364
     0.2452   0.2452   1.1830   1.1830   1.3514   1.3514   2.3238   2.3238
     2.6264   2.6264   3.5755   3.5755

          k =-0.5000-0.5000 0.0000 (  9748 PWs)   bands (ev):

    -3.1980  -3.1980  -3.1980  -3.1980  -2.9427  -2.9427  -2.9427  -2.9427
    -2.5325  -2.5325  -2.5325  -2.5325  -1.9645  -1.9645  -1.9645  -1.9645
    -1.2246  -1.2246  -1.2246  -1.2246  -0.3469  -0.3469  -0.3469  -0.3469
     0.6584   0.6584   0.6584   0.6585   1.8032   1.8032   1.8032   1.8032
     3.0721   3.0721   3.0721   3.0721

     the Fermi energy is     3.4651 ev

!    total energy              =    -249.16730416 Ry
     Harris-Foulkes estimate   =    -249.16730476 Ry
     estimated scf accuracy    <       0.00000072 Ry

     The total energy is the sum of the following terms:

     one-electron contribution =   -1055.17852293 Ry
     hartree contribution      =     547.54547559 Ry
     xc contribution           =    -200.26143070 Ry
     ewald contribution        =     458.72784386 Ry
     smearing contrib. (-TS)   =      -0.00066998 Ry

     convergence has been achieved in  20 iterations

     Forces acting on atoms (cartesian axes, Ry/au):

     atom    1 type  1   force =     0.00000000    0.00000000   -0.00369464
     atom    2 type  1   force =     0.00000000    0.00000000   -0.00369461
     atom    3 type  1   force =     0.00000000    0.00000000    0.00220878
     atom    4 type  1   force =     0.00000000    0.00000000    0.00220878
     atom    5 type  1   force =     0.00000000    0.00000000    0.00082608
     atom    6 type  1   force =     0.00000000    0.00000000    0.00082612
     atom    7 type  1   force =     0.00000000    0.00000000    0.00094247
     atom    8 type  1   force =     0.00000000    0.00000000    0.00094247
     atom    9 type  1   force =     0.00000000    0.00000000    0.00028073
     atom   10 type  1   force =     0.00000000    0.00000000    0.00028075
     atom   11 type  1   force =     0.00000000    0.00000000   -0.00028047
     atom   12 type  1   force =     0.00000000    0.00000000   -0.00028047
     atom   13 type  1   force =     0.00000000    0.00000000   -0.00094247
     atom   14 type  1   force =     0.00000000    0.00000000   -0.00094250
     atom   15 type  1   force =     0.00000000    0.00000000   -0.00082588
     atom   16 type  1   force =     0.00000000    0.00000000   -0.00082588
     atom   17 type  1   force =     0.00000000    0.00000000   -0.00220935
     atom   18 type  1   force =     0.00000000    0.00000000   -0.00220935
     atom   19 type  1   force =     0.00000000    0.00000000    0.00369473
     atom   20 type  1   force =     0.00000000    0.00000000    0.00369473

     Total force =     0.008984     Total SCF correction =     0.001424
     SCF correction compared to forces is large: reduce conv_thr to get better values


     Computing stress (Cartesian axis) and pressure

          total   stress  (Ry/bohr**3)                   (kbar)     P=   -8.27
  -0.00008118   0.00000000   0.00000000        -11.94      0.00      0.00
   0.00000000  -0.00008118   0.00000000          0.00    -11.94      0.00
   0.00000000   0.00000000  -0.00000620          0.00      0.00     -0.91


     BFGS Geometry Optimization

     number of scf cycles    =   1
     number of bfgs steps    =   0

     energy   new            =    -249.1673041597 Ry

     new trust radius        =       0.0036947285 bohr
     new conv_thr            =       0.0000010000 Ry


ATOMIC_POSITIONS (crystal)
Al       0.000000000   0.000000000  -0.000060727
Al       0.500000000   0.500000000  -0.000060727
Al       0.500000000   0.000000000   0.062536305
Al       0.000000000   0.500000000   0.062536305
Al       0.000000000   0.000000000   0.125013578
Al       0.500000000   0.500000000   0.125013579
Al       0.500000000   0.000000000   0.187515491
Al       0.000000000   0.500000000   0.187515491
Al       0.000000000   0.000000000   0.250004614
Al       0.500000000   0.500000000   0.250004615
Al       0.500000000   0.000000000   0.312495390
Al       0.000000000   0.500000000   0.312495390
Al       0.000000000   0.000000000   0.374984509
Al       0.500000000   0.500000000   0.374984509
Al       0.500000000   0.000000000   0.437486425
Al       0.000000000   0.500000000   0.437486425
Al       0.000000000   0.000000000   0.499963686
Al       0.500000000   0.500000000   0.499963686
Al       0.500000000   0.000000000   0.562560729
Al       0.000000000   0.500000000   0.562560729



     Writing output data file Al_100_5_3.save/
     NEW-OLD atomic charge density approx. for the potential

     total cpu time spent up to now is     3231.1 secs

     Self-consistent Calculation

     iteration #  1     ecut=    30.00 Ry     beta= 0.30
     Davidson diagonalization with overlap
     ethr =  1.00E-06,  avg # of iterations =  2.0

     negative rho (up, down):  2.275E-08 0.000E+00

     total cpu time spent up to now is     3391.2 secs

     total energy              =    -249.16738705 Ry
     Harris-Foulkes estimate   =    -249.16739206 Ry
     estimated scf accuracy    <       0.00032129 Ry

     iteration #  2     ecut=    30.00 Ry     beta= 0.30
     Davidson diagonalization with overlap
     ethr =  5.35E-07,  avg # of iterations =  1.0

     negative rho (up, down):  3.671E-05 0.000E+00

     total cpu time spent up to now is     3528.3 secs

     total energy              =    -249.16736732 Ry
     Harris-Foulkes estimate   =    -249.16738969 Ry
     estimated scf accuracy    <       0.00023197 Ry

     iteration #  3     ecut=    30.00 Ry     beta= 0.30
     Davidson diagonalization with overlap
     ethr =  3.87E-07,  avg # of iterations =  2.1

     negative rho (up, down):  1.921E-05 0.000E+00

     total cpu time spent up to now is     3675.4 secs

     total energy              =    -249.16737833 Ry
     Harris-Foulkes estimate   =    -249.16738408 Ry
     estimated scf accuracy    <       0.00007982 Ry

     iteration #  4     ecut=    30.00 Ry     beta= 0.30
     Davidson diagonalization with overlap
     ethr =  1.33E-07,  avg # of iterations =  1.6

     total cpu time spent up to now is     3811.7 secs

     End of self-consistent calculation

          k = 0.0000 0.0000 0.0000 (  9779 PWs)   bands (ev):

    -7.7039  -7.4400  -7.0160  -6.4282  -5.6786  -4.7819  -3.7446  -2.5690
    -1.2657   0.2307   0.5838   0.5838   0.8267   0.8267   1.0327   1.2168
     1.2168   1.7591   1.7591   1.9438   1.9438   2.1956   2.1956   2.4545
     2.4545   2.5954   2.5954   3.1298   3.1298   3.1561   3.2914   3.2914
     3.9331   3.9331   4.2670   4.2670

          k = 0.0000 0.0625 0.0000 (  9815 PWs)   bands (ev):

    -7.6681  -7.4043  -6.9804  -6.3927  -5.6433  -4.7468  -3.7097  -2.5343
    -1.2310   0.0108   0.2580   0.2652   0.6165   0.6551   0.8593   1.0659
     1.2052   1.2495   1.7921   1.9037   1.9784   2.2338   2.4875   2.5776
     2.5831   2.7898   2.8460   3.1243   3.1892   3.2753   3.3244   3.6625
     3.7923   4.1002   4.2999   4.4221

          k = 0.0000 0.1250 0.0000 (  9819 PWs)   bands (ev):

    -7.5608  -7.2971  -6.8735  -6.2862  -5.5374  -4.6414  -3.6050  -2.4304
    -1.1283  -0.8948  -0.6435  -0.2407   0.3174   0.3674   0.7148   0.9576
     1.0285   1.1652   1.3481   1.8686   1.8908   2.0834   2.3214   2.5864
     2.7544   2.8464   3.2886   3.4012   3.4230   3.6659   3.8893   4.0303
     4.0765   4.2728   4.3982   4.8988

          k = 0.0000 0.1875 0.0000 (  9823 PWs)   bands (ev):

    -7.3821  -7.1188  -6.6956  -6.1090  -5.3609  -4.4659  -3.4304  -2.2569
    -1.7955  -1.5410  -1.1339  -0.9565  -0.5699   0.1488   0.5378   0.8788
     1.0061   1.1220   1.3305   1.5124   1.9789   2.0550   2.2471   2.5266
     2.7504   2.8287   3.2872   3.4525   3.5433   3.5872   4.2358   4.4214
     4.5624   4.8619   4.9787   5.0472

          k = 0.0000 0.2500 0.0000 (  9797 PWs)   bands (ev):

    -7.1323  -6.8693  -6.4468  -5.8612  -5.1143  -4.2206  -3.1867  -2.6471
    -2.3915  -2.0150  -1.9809  -1.4122  -0.7169  -0.6877   0.1781   0.7760
     1.1090   1.1753   1.3521   1.5625   1.7427   2.2629   2.2850   2.5116
     2.7228   2.9801   3.2451   3.6494   3.6790   3.7805   3.8165   4.4692
     4.7915   5.0769   5.1882   5.2870

          k = 0.0000 0.3125 0.0000 (  9769 PWs)   bands (ev):

    -6.8117  -6.5493  -6.1277  -5.5431  -4.7977  -3.9057  -3.4395  -3.1826
    -2.8737  -2.7700  -2.1982  -1.7046  -1.4688  -0.5967  -0.4092   0.4103
     1.0810   1.4043   1.5430   1.6476   1.8598   2.0377   2.5803   2.7003
     2.7815   3.2249   3.2759   3.5266   3.9594   4.0785   4.1126   4.3169
     4.5591   4.8020   4.8233   4.9847

          k = 0.0000 0.3750 0.0000 (  9732 PWs)   bands (ev):

    -6.4207  -6.1590  -5.7385  -5.1554  -4.4118  -4.1693  -3.9111  -3.5218
    -3.4964  -2.9214  -2.4919  -2.1883  -1.3256  -1.3114  -0.2979  -0.0346
     0.8471   1.4513   1.7660   2.0093   2.0993   2.2231   2.3996   2.9422
     3.0711   3.4995   3.6376   3.7265   3.8688   3.8931   4.1118   4.2650
     4.2891   4.4737   4.4862   4.5018

          k = 0.0000 0.4375 0.0000 (  9756 PWs)   bands (ev):

    -5.9603  -5.6992  -5.2799  -4.8335  -4.6986  -4.5743  -4.1580  -3.9572
    -3.5807  -3.0697  -2.8443  -2.0430  -1.9633  -0.9446  -0.8803   0.2078
     0.4061   1.4785   1.8848   2.1928   2.4359   2.6512   2.8263   2.8909
     3.2444   3.3692   3.4875   3.6929   3.7042   3.8774   3.9236   4.0643
     4.3246   4.4141   4.4200   4.9240

          k = 0.0000-0.5000 0.0000 (  9786 PWs)   bands (ev):

    -5.4309  -5.4309  -5.1707  -5.1707  -4.7528  -4.7528  -4.1735  -4.1735
    -3.4343  -3.4343  -2.5497  -2.5497  -1.5267  -1.5267  -0.3687  -0.3687
     0.9115   0.9115   2.3754   2.3754   2.6857   2.6857   2.9288   2.9288
     3.1431   3.1431   3.3189   3.3189   3.8618   3.8618   4.1044   4.1044
     4.4020   4.4021   4.5567   4.5567

          k = 0.0625 0.0625 0.0000 (  9809 PWs)   bands (ev):

    -7.6323  -7.3685  -6.9447  -6.3572  -5.6080  -4.7116  -3.6748  -2.4996
    -1.1967   0.0441   0.0441   0.2912   0.2912   0.2994   0.6879   0.6879
     1.0990   1.2378   1.2378   1.9444   1.9444   2.6093   2.6093   2.7859
     2.7859   2.8564   2.8564   3.2222   3.2680   3.2680   3.6781   3.6781
     3.9266   3.9266   4.5744   4.5744

          k = 0.0625 0.1250 0.0000 (  9834 PWs)   bands (ev):

    -7.5250  -7.2615  -6.8379  -6.2508  -5.5021  -4.6063  -3.5700  -2.3957
    -1.0941  -0.8608  -0.6102  -0.2074   0.1439   0.3500   0.3913   0.4012
     0.7886   1.0534   1.1982   1.3526   1.8871   2.0846   2.7113   2.8400
     2.8967   3.0277   3.3208   3.3463   3.6964   3.8281   3.9588   3.9788
     4.1041   4.3298   4.5898   4.8508

          k = 0.0625 0.1875 0.0000 (  9834 PWs)   bands (ev):

    -7.3464  -7.0831  -6.6601  -6.0736  -5.3257  -4.4309  -3.3957  -2.2224
    -1.7610  -1.5070  -1.1001  -0.9225  -0.5364   0.1805   0.3110   0.5590
     0.5716   0.9282   1.0704   1.3636   1.5029   2.0487   2.2234   2.8647
     3.0625   3.1290   3.1312   3.4827   3.6399   4.0424   4.1318   4.4650
     4.8129   4.8925   4.9955   5.1407

          k = 0.0625 0.2500 0.0000 (  9795 PWs)   bands (ev):

    -7.0967  -6.8338  -6.4114  -5.8259  -5.0791  -4.1856  -3.1518  -2.6125
    -2.3567  -1.9803  -1.9464  -1.3784  -0.6827  -0.6543   0.2098   0.5451
     0.7873   0.8095   1.1908   1.2105   1.5955   1.7594   2.3436   2.4564
     3.1131   3.2586   3.3129   3.7004   3.7512   3.8264   4.2707   4.3690
     4.8288   4.9500   4.9930   5.1929

          k = 0.0625 0.3125 0.0000 (  9745 PWs)   bands (ev):

    -6.7761  -6.5137  -6.0922  -5.5079  -4.7626  -3.8708  -3.4048  -3.1479
    -2.8390  -2.7354  -2.1636  -1.6699  -1.4344  -0.5631  -0.3752   0.4408
     0.8436   1.0952   1.1141   1.4424   1.6422   1.8929   2.0507   2.7521
     2.8252   3.3836   3.5972   3.7465   3.8583   4.1202   4.2072   4.2670
     4.3506   4.6152   4.6632   4.6713

          k = 0.0625 0.3750 0.0000 (  9755 PWs)   bands (ev):

    -6.3853  -6.1236  -5.7031  -5.1203  -4.3768  -4.1344  -3.8763  -3.4871
    -3.4617  -2.8870  -2.4577  -2.1539  -1.2917  -1.2774  -0.2647  -0.0010
     0.8749   1.2135   1.4509   1.4831   1.8701   2.1624   2.2558   2.4154
     3.1122   3.3279   3.4881   3.5852   3.9506   3.9601   3.9811   4.0833
     4.3662   4.3873   4.4842   4.5297

          k = 0.0625 0.4375 0.0000 (  9745 PWs)   bands (ev):

    -5.9249  -5.6639  -5.2447  -4.7984  -4.6635  -4.5393  -4.1231  -3.9221
    -3.5460  -3.0350  -2.8096  -2.0086  -1.9288  -0.9107  -0.8463   0.2406
     0.4392   1.4950   1.6395   1.9095   1.9218   2.2981   2.6824   2.7222
     2.8452   2.9622   2.9779   3.3561   3.5531   3.7277   3.9051   4.2503
     4.3998   4.5084   4.5909   4.7125

          k = 0.0625-0.5000 0.0000 (  9778 PWs)   bands (ev):

    -5.3957  -5.3957  -5.1355  -5.1355  -4.7178  -4.7178  -4.1385  -4.1385
    -3.3995  -3.3995  -2.5151  -2.5151  -1.4924  -1.4924  -0.3350  -0.3350
     0.9430   0.9430   2.1047   2.1047   2.4015   2.4015   2.4639   2.4639
     2.7943   2.7943   3.1694   3.1694   3.3493   3.3493   4.0447   4.0447
     4.6381   4.6381   4.8881   4.8882

          k = 0.1250 0.1250 0.0000 (  9813 PWs)   bands (ev):

    -7.4178  -7.1544  -6.7312  -6.1445  -5.3962  -4.5010  -3.4652  -2.2915
    -0.9909  -0.7592  -0.7592  -0.5088  -0.5088  -0.1071  -0.1071   0.4491
     0.4491   0.5036   1.1703   1.1703   1.2974   2.0356   2.0356   3.0102
     3.0102   3.4164   3.7872   3.7872   4.0300   4.0300   4.1048   4.1048
     4.5262   4.5262   5.0037   5.0043

          k = 0.1250 0.1875 0.0000 (  9816 PWs)   bands (ev):

    -7.2393  -6.9762  -6.5535  -5.9674  -5.2199  -4.3257  -3.2911  -2.1185
    -1.6577  -1.4044  -0.9984  -0.8197  -0.5903  -0.4364  -0.3400   0.0625
     0.2715   0.6380   0.6733   1.1201   1.3805   1.4629   2.1423   2.2105
     3.1528   3.2973   3.5663   3.9626   4.1329   4.2926   4.6497   4.6538
     4.7978   4.8530   4.9987   5.1837

          k = 0.1250 0.2500 0.0000 (  9780 PWs)   bands (ev):

    -6.9898  -6.7270  -6.3049  -5.7198  -4.9735  -4.0805  -3.0473  -2.5087
    -2.2530  -1.8768  -1.8435  -1.2764  -0.5804  -0.5548  -0.3534  -0.1025
     0.2383   0.3774   0.8501   0.9102   1.3431   1.5855   1.6943   2.4332
     2.4570   3.4216   3.6696   3.6805   4.1155   4.1531   4.1705   4.5061
     4.5534   4.5664   4.8823   5.1090

          k = 0.1250 0.3125 0.0000 (  9759 PWs)   bands (ev):

    -6.6695  -6.4072  -5.9860  -5.4021  -4.6573  -3.7661  -3.3007  -3.0438
    -2.7350  -2.6315  -2.0603  -1.5668  -1.3322  -0.4639  -0.2734  -0.0485
     0.1926   0.5485   0.6045   1.1838   1.2126   1.7009   1.8872   1.9912
     2.7194   2.9700   3.1454   3.4134   3.7072   3.8126   4.1844   4.2733
     4.3655   4.6860   4.7842   4.7986

          k = 0.1250 0.3750 0.0000 (  9737 PWs)   bands (ev):

    -6.2789  -6.0174  -5.5972  -5.0147  -4.2717  -4.0296  -3.7716  -3.3825
    -3.3573  -2.7829  -2.3539  -2.0505  -1.1890  -1.1750  -0.1664   0.1000
     0.3193   0.5751   0.8846   1.0915   1.5439   1.5726   2.2507   2.2634
     2.3524   2.4838   2.7250   3.1038   3.1220   3.6753   3.6840   4.1244
     4.3618   4.4426   4.5371   4.8908

          k = 0.1250 0.4375 0.0000 (  9737 PWs)   bands (ev):

    -5.8189  -5.5581  -5.1391  -4.6932  -4.5583  -4.4342  -4.0183  -3.8174
    -3.4416  -2.9307  -2.7056  -1.9050  -1.8256  -0.8091  -0.7442   0.3351
     0.5376   0.7608   0.9958   1.4291   1.6456   1.7635   1.9783   2.0969
     2.1018   2.4922   2.6765   2.7745   3.0515   3.1082   3.5134   3.7520
     3.8586   4.5294   4.6018   4.9101

          k = 0.1250-0.5000 0.0000 (  9742 PWs)   bands (ev):

    -5.2900  -5.2900  -5.0301  -5.0301  -4.6126  -4.6126  -4.0337  -4.0337
    -3.2952  -3.2952  -2.4113  -2.4113  -1.3896  -1.3896  -0.2344  -0.2344
     1.0252   1.0252   1.2544   1.2544   1.5490   1.5490   1.9268   1.9268
     2.4771   2.4771   2.5406   2.5406   3.1934   3.1934   3.2694   3.2694
     4.0473   4.0473   5.0040   5.0041

          k = 0.1875 0.1875 0.0000 (  9787 PWs)   bands (ev):

    -7.0610  -6.7982  -6.3759  -5.7904  -5.0438  -4.1506  -3.1171  -1.9461
    -1.4867  -1.4867  -1.2341  -1.2341  -0.8290  -0.8290  -0.6490  -0.2687
    -0.2687   0.4600   0.4600   0.8421   1.3327   1.3327   1.6282   2.3194
     2.3194   3.4435   3.4435   3.6045   4.0714   4.1038   4.5194   4.6682
     4.6682   5.0618   5.1442   5.1442

          k = 0.1875 0.2500 0.0000 (  9764 PWs)   bands (ev):

    -6.8118  -6.5493  -6.1277  -5.5431  -4.7977  -3.9057  -2.8737  -2.3358
    -2.0810  -1.7047  -1.6726  -1.2479  -1.1070  -0.9955  -0.5899  -0.4100
    -0.3949  -0.0091   0.4630   0.7345   1.0767   1.4881   1.5749   1.8588
     2.5157   2.6711   3.0342   3.3057   3.6389   3.7062   3.9273   4.0654
     4.2604   4.8650   4.9705   5.2370

          k = 0.1875 0.3125 0.0000 (  9765 PWs)   bands (ev):

    -6.4919  -6.2300  -5.8092  -5.2259  -4.4819  -3.5915  -3.1272  -2.8706
    -2.5616  -2.4589  -1.8888  -1.3952  -1.1636  -0.9407  -0.6880  -0.3571
    -0.2141  -0.1043   0.2711   0.7437   1.0102   1.3694   1.8634   1.8666
     2.1536   2.3116   2.5537   2.8589   2.9520   3.1223   3.5069   3.9916
     4.1914   4.3619   4.5431   5.0563

          k = 0.1875 0.3750 0.0000 (  9744 PWs)   bands (ev):

    -6.1019  -5.8405  -5.4208  -4.8389  -4.0967  -3.8553  -3.5975  -3.2086
    -3.1837  -2.6102  -2.1813  -1.8789  -1.0181  -1.0067  -0.5661  -0.3242
     0.0121   0.0919   0.2664   0.6732   1.1676   1.3818   1.5125   1.8458
     1.8593   2.2137   2.2561   2.4540   2.5102   2.8173   3.2091   3.5197
     3.9171   4.2975   4.3726   4.6968

          k = 0.1875 0.4375 0.0000 (  9716 PWs)   bands (ev):

    -5.6423  -5.3817  -4.9632  -4.5180  -4.3831  -4.2593  -3.8438  -3.6430
    -3.2677  -2.7573  -2.5328  -1.7331  -1.6543  -0.6420  -0.5750  -0.1282
     0.1292   0.4272   0.6344   0.6886   0.9452   1.1036   1.2422   1.6218
     1.7996   1.8138   2.1744   2.2103   2.6713   2.8946   2.9398   3.2420
     3.7033   3.7526   3.9863   4.7136

          k = 0.1875-0.5000 0.0000 (  9738 PWs)   bands (ev):

    -5.1141  -5.1141  -4.8544  -4.8544  -4.4373  -4.4373  -3.8590  -3.8590
    -3.1214  -3.1214  -2.2387  -2.2387  -1.2189  -1.2189  -0.0711  -0.0711
     0.3830   0.3830   0.6181   0.6181   1.0552   1.0552   1.2457   1.2457
     1.6073   1.6073   2.3062   2.3062   2.7200   2.7200   3.1434   3.1434
     3.4714   3.4714   4.1712   4.1712

          k = 0.2500 0.2500 0.0000 (  9759 PWs)   bands (ev):

    -6.5629  -6.3008  -5.8798  -5.2963  -4.5520  -3.6613  -2.6310  -2.0949
    -2.0949  -1.8408  -1.8408  -1.4639  -1.4334  -1.4334  -0.8698  -0.8698
    -0.1723  -0.1366  -0.1366   0.7382   0.7382   1.3018   1.7312   1.7312
     2.0880   2.2519   2.4942   2.8644   2.8644   2.8927   3.4484   4.1198
     4.1198   4.1324   4.3010   4.9988

          k = 0.2500 0.3125 0.0000 (  9760 PWs)   bands (ev):

    -6.2436  -5.9820  -5.5619  -4.9795  -4.2367  -3.3478  -2.8844  -2.6284
    -2.3195  -2.2180  -1.7864  -1.6496  -1.5324  -1.1552  -1.1246  -0.9337
    -0.5411  -0.0689   0.1306   0.2009   0.9534   1.0511   1.3843   1.7151
     1.7351   1.9896   2.1324   2.1503   2.3777   2.6950   3.1208   3.3984
     3.4170   4.2527   4.3626   4.5628

          k = 0.2500 0.3750 0.0000 (  9712 PWs)   bands (ev):

    -5.8542  -5.5933  -5.1742  -4.5933  -3.8521  -3.6113  -3.3539  -2.9653
    -2.9410  -2.3687  -1.9398  -1.6406  -1.4085  -1.1548  -0.8261  -0.7798
    -0.6834  -0.1899   0.2709   0.4863   0.5495   0.7539   1.0512   1.3998
     1.4068   1.4320   1.9857   2.0097   2.4065   2.6627   2.7080   2.7418
     3.5439   3.5679   4.1052   4.5295

          k = 0.2500 0.4375 0.0000 (  9748 PWs)   bands (ev):

    -5.3955  -5.1353  -4.7174  -4.2731  -4.1382  -4.0148  -3.6000  -3.3992
    -3.0250  -2.5150  -2.2917  -1.4932  -1.4166  -0.9641  -0.7215  -0.3934
    -0.3427  -0.3034   0.1234   0.2784   0.3591   0.7626   0.7969   0.9760
     0.9912   1.3510   1.8228   2.0506   2.0580   2.4552   2.8231   2.8887
     3.2108   3.5313   3.9116   3.9222

          k = 0.2500-0.5000 0.0000 (  9726 PWs)   bands (ev):

    -4.8682  -4.8682  -4.6089  -4.6089  -4.1923  -4.1923  -3.6149  -3.6149
    -2.8784  -2.8784  -1.9978  -1.9978  -0.9828  -0.9828  -0.4569  -0.4569
    -0.1988  -0.1988   0.0970   0.0970   0.2994   0.2994   0.7784   0.7784
     1.4646   1.4646   1.4912   1.4912   2.3516   2.3516   2.9122   2.9122
     3.3885   3.3885   3.6573   3.6573

          k = 0.3125 0.3125 0.0000 (  9744 PWs)   bands (ev):

    -5.9250  -5.6639  -5.2446  -4.6634  -3.9219  -3.0347  -2.5729  -2.5729
    -2.3181  -2.3181  -2.0087  -1.9091  -1.9091  -1.3428  -1.3428  -0.8480
    -0.6062  -0.6062   0.2691   0.2691   0.4186   0.6892   0.9865   1.2666
     1.2666   1.3680   1.9217   1.9420   2.4050   2.4050   2.6446   2.6750
     3.5049   3.6672   3.6672   4.4668

          k = 0.3125 0.3750 0.0000 (  9736 PWs)   bands (ev):

    -5.5364  -5.2760  -4.8579  -4.2781  -3.5384  -3.2983  -3.0418  -2.6536
    -2.6300  -2.1942  -2.0599  -1.9392  -1.6309  -1.5300  -1.3409  -0.9453
    -0.4787  -0.4701  -0.2055  -0.0077   0.2286   0.5487   0.6529   0.6660
     0.8405   1.2211   1.5897   1.7548   1.9212   2.3217   2.7259   2.7596
     3.0259   3.0802   3.7955   3.9731

          k = 0.3125 0.4375 0.0000 (  9760 PWs)   bands (ev):

    -5.0787  -4.8191  -4.4020  -3.9588  -3.8240  -3.7010  -3.2869  -3.0867
    -2.7134  -2.2049  -1.9836  -1.7468  -1.4920  -1.1880  -1.1635  -1.0227
    -0.6562  -0.5230  -0.3975  -0.1017  -0.0698   0.0961   0.2155   0.5804
     1.0637   1.0756   1.2623   1.2947   2.0783   2.1567   2.3305   2.7121
     3.1960   3.2192   3.4599   3.7789

          k = 0.3125-0.5000 0.0000 (  9722 PWs)   bands (ev):

    -4.5525  -4.5525  -4.2938  -4.2938  -3.8781  -3.8781  -3.3019  -3.3019
    -2.5674  -2.5674  -1.6908  -1.6908  -1.2327  -1.2327  -0.9889  -0.9889
    -0.6650  -0.6650  -0.5698  -0.5698   0.0114   0.0114   0.4914   0.4914
     0.7272   0.7272   1.5588   1.5588   1.7923   1.7923   2.5622   2.5622
     3.2688   3.2688   3.6516   3.6516

          k = 0.3750 0.3750 0.0000 (  9732 PWs)   bands (ev):

    -5.1490  -4.8892  -4.4722  -3.8939  -3.1561  -2.9166  -2.9166  -2.6609
    -2.6609  -2.2740  -2.2508  -2.2508  -1.6832  -1.6832  -1.2566  -0.9446
    -0.9446  -0.7226  -0.4637  -0.1680  -0.0691  -0.0691   0.0280   0.5143
     0.9319   0.9319   1.1948   1.2290   2.0737   2.0737   2.0916   2.6454
     3.1318   3.3397   3.3397   3.3942

          k = 0.3750 0.4375 0.0000 (  9737 PWs)   bands (ev):

    -4.6925  -4.4335  -4.0175  -3.5754  -3.4408  -3.3184  -2.9059  -2.7057
    -2.4677  -2.3345  -2.2122  -1.8282  -1.8020  -1.6136  -1.3676  -1.2169
    -1.1234  -0.8011  -0.7391  -0.7037  -0.4790  -0.1232   0.2767   0.3553
     0.3853   0.5940   1.3212   1.4259   1.4888   1.6587   2.4311   2.4607
     2.7624   3.1364   3.5212   3.7108

          k = 0.3750-0.5000 0.0000 (  9724 PWs)   bands (ev):

    -4.1678  -4.1678  -3.9095  -3.9095  -3.4949  -3.4949  -2.9208  -2.9208
    -2.1899  -2.1899  -1.9505  -1.9505  -1.6952  -1.6952  -1.3664  -1.3664
    -1.2271  -1.2271  -0.7239  -0.7239  -0.2750  -0.2750   0.0136   0.0136
     0.8614   0.8614   0.8756   0.8756   1.8803   1.8803   2.1304   2.1304
     3.0231   3.0231   3.5812   3.5812

          k = 0.4375 0.4375 0.0000 (  9776 PWs)   bands (ev):

    -4.2376  -3.9793  -3.5645  -3.1239  -3.1239  -2.9899  -2.8678  -2.8678
    -2.4569  -2.4569  -2.2587  -2.0189  -1.8880  -1.8880  -1.7634  -1.4343
    -1.2957  -1.1486  -1.1486  -0.7910  -0.3437  -0.2732  -0.2732  -0.0542
     0.7299   0.7299   0.7936   0.8083   1.8137   1.8734   1.8734   2.0632
     2.9568   3.1418   3.1418   3.5147

          k = 0.4375-0.5000 0.0000 (  9754 PWs)   bands (ev):

    -3.7144  -3.7144  -3.4569  -3.4569  -3.0439  -3.0439  -2.6050  -2.6050
    -2.4721  -2.4721  -2.3494  -2.3494  -1.9389  -1.9389  -1.7499  -1.7499
    -1.3533  -1.3533  -0.8737  -0.8737  -0.6165  -0.6165   0.1403   0.1403
     0.2510   0.2510   1.1866   1.1866   1.3556   1.3556   2.3274   2.3274
     2.6302   2.6302   3.5793   3.5793

          k =-0.5000-0.5000 0.0000 (  9748 PWs)   bands (ev):

    -3.1931  -3.1931  -3.1931  -3.1931  -2.9367  -2.9367  -2.9367  -2.9367
    -2.5254  -2.5254  -2.5254  -2.5254  -1.9564  -1.9564  -1.9564  -1.9564
    -1.2166  -1.2166  -1.2166  -1.2166  -0.3413  -0.3413  -0.3413  -0.3413
     0.6625   0.6625   0.6625   0.6625   1.8069   1.8069   1.8069   1.8069
     3.0759   3.0759   3.0759   3.0759

     the Fermi energy is     3.4700 ev

!    total energy              =    -249.16738115 Ry
     Harris-Foulkes estimate   =    -249.16738168 Ry
     estimated scf accuracy    <       0.00000099 Ry

     The total energy is the sum of the following terms:

     one-electron contribution =   -1055.01614856 Ry
     hartree contribution      =     547.44016270 Ry
     xc contribution           =    -200.25899070 Ry
     ewald contribution        =     458.66825271 Ry
     smearing contrib. (-TS)   =      -0.00065730 Ry

     convergence has been achieved in   4 iterations

     Forces acting on atoms (cartesian axes, Ry/au):

     atom    1 type  1   force =     0.00000000    0.00000000   -0.00333255
     atom    2 type  1   force =     0.00000000    0.00000000   -0.00333261
     atom    3 type  1   force =     0.00000000    0.00000000    0.00184478
     atom    4 type  1   force =     0.00000000    0.00000000    0.00184478
     atom    5 type  1   force =     0.00000000    0.00000000    0.00090117
     atom    6 type  1   force =     0.00000000    0.00000000    0.00090085
     atom    7 type  1   force =     0.00000000    0.00000000    0.00088381
     atom    8 type  1   force =     0.00000000    0.00000000    0.00088381
     atom    9 type  1   force =     0.00000000    0.00000000    0.00028158
     atom   10 type  1   force =     0.00000000    0.00000000    0.00028139
     atom   11 type  1   force =     0.00000000    0.00000000   -0.00028080
     atom   12 type  1   force =     0.00000000    0.00000000   -0.00028080
     atom   13 type  1   force =     0.00000000    0.00000000   -0.00088424
     atom   14 type  1   force =     0.00000000    0.00000000   -0.00088387
     atom   15 type  1   force =     0.00000000    0.00000000   -0.00090066
     atom   16 type  1   force =     0.00000000    0.00000000   -0.00090066
     atom   17 type  1   force =     0.00000000    0.00000000   -0.00184521
     atom   18 type  1   force =     0.00000000    0.00000000   -0.00184490
     atom   19 type  1   force =     0.00000000    0.00000000    0.00333207
     atom   20 type  1   force =     0.00000000    0.00000000    0.00333207

     Total force =     0.008045     Total SCF correction =     0.001162
     SCF correction compared to forces is large: reduce conv_thr to get better values


     Computing stress (Cartesian axis) and pressure

          total   stress  (Ry/bohr**3)                   (kbar)     P=   -8.38
  -0.00008168   0.00000000   0.00000000        -12.02      0.00      0.00
   0.00000000  -0.00008168   0.00000000          0.00    -12.02      0.00
   0.00000000   0.00000000  -0.00000754          0.00      0.00     -1.11


     number of scf cycles    =   2
     number of bfgs steps    =   1

     energy   old            =    -249.1673041597 Ry
     energy   new            =    -249.1673811521 Ry

     CASE: energy  _new < energy  _old


     WARNING: bfgs curvature condition failed, Theta= 0.895
     new trust radius        =       0.0040642014 bohr
     new conv_thr            =       0.0000000100 Ry


ATOMIC_POSITIONS (crystal)
Al       0.000000000   0.000000000  -0.000127528
Al       0.500000000   0.500000000  -0.000127528
Al       0.500000000   0.000000000   0.062573809
Al       0.000000000   0.500000000   0.062573809
Al       0.000000000   0.000000000   0.125031085
Al       0.500000000   0.500000000   0.125031081
Al       0.500000000   0.000000000   0.187533087
Al       0.000000000   0.500000000   0.187533087
Al       0.000000000   0.000000000   0.250010157
Al       0.500000000   0.500000000   0.250010155
Al       0.500000000   0.000000000   0.312489861
Al       0.000000000   0.500000000   0.312489861
Al       0.000000000   0.000000000   0.374966906
Al       0.500000000   0.500000000   0.374966912
Al       0.500000000   0.000000000   0.437468927
Al       0.000000000   0.500000000   0.437468927
Al       0.000000000   0.000000000   0.499926173
Al       0.500000000   0.500000000   0.499926178
Al       0.500000000   0.000000000   0.562627522
Al       0.000000000   0.500000000   0.562627522



     Writing output data file Al_100_5_3.save/
     NEW-OLD atomic charge density approx. for the potential

     total cpu time spent up to now is     3882.5 secs

     Self-consistent Calculation

     iteration #  1     ecut=    30.00 Ry     beta= 0.30
     Davidson diagonalization with overlap
     ethr =  1.00E-06,  avg # of iterations =  2.2

     total cpu time spent up to now is     4051.6 secs

     total energy              =    -249.16746210 Ry
     Harris-Foulkes estimate   =    -249.16746771 Ry
     estimated scf accuracy    <       0.00048629 Ry

     iteration #  2     ecut=    30.00 Ry     beta= 0.30
     Davidson diagonalization with overlap
     ethr =  8.10E-07,  avg # of iterations =  1.0

     total cpu time spent up to now is     4187.2 secs

     total energy              =    -249.16744406 Ry
     Harris-Foulkes estimate   =    -249.16746453 Ry
     estimated scf accuracy    <       0.00032533 Ry

     iteration #  3     ecut=    30.00 Ry     beta= 0.30
     Davidson diagonalization with overlap
     ethr =  5.42E-07,  avg # of iterations =  1.6

     total cpu time spent up to now is     4324.2 secs

     total energy              =    -249.16745637 Ry
     Harris-Foulkes estimate   =    -249.16745779 Ry
     estimated scf accuracy    <       0.00004089 Ry

     iteration #  4     ecut=    30.00 Ry     beta= 0.30
     Davidson diagonalization with overlap
     ethr =  6.81E-08,  avg # of iterations =  1.9

     total cpu time spent up to now is     4465.1 secs

     total energy              =    -249.16745670 Ry
     Harris-Foulkes estimate   =    -249.16745747 Ry
     estimated scf accuracy    <       0.00000846 Ry

     iteration #  5     ecut=    30.00 Ry     beta= 0.30
     Davidson diagonalization with overlap
     ethr =  1.41E-08,  avg # of iterations =  2.3

     total cpu time spent up to now is     4607.3 secs

     total energy              =    -249.16745720 Ry
     Harris-Foulkes estimate   =    -249.16745745 Ry
     estimated scf accuracy    <       0.00000816 Ry

     iteration #  6     ecut=    30.00 Ry     beta= 0.30
     Davidson diagonalization with overlap
     ethr =  1.36E-08,  avg # of iterations =  1.2

     total cpu time spent up to now is     4743.1 secs

     total energy              =    -249.16745727 Ry
     Harris-Foulkes estimate   =    -249.16745727 Ry
     estimated scf accuracy    <       0.00000387 Ry

     iteration #  7     ecut=    30.00 Ry     beta= 0.30
     Davidson diagonalization with overlap
     ethr =  6.46E-09,  avg # of iterations =  1.0

     total cpu time spent up to now is     4878.6 secs

     total energy              =    -249.16745723 Ry
     Harris-Foulkes estimate   =    -249.16745728 Ry
     estimated scf accuracy    <       0.00000371 Ry

     iteration #  8     ecut=    30.00 Ry     beta= 0.30
     Davidson diagonalization with overlap
     ethr =  6.19E-09,  avg # of iterations =  1.0

     total cpu time spent up to now is     5014.5 secs

     total energy              =    -249.16745723 Ry
     Harris-Foulkes estimate   =    -249.16745725 Ry
     estimated scf accuracy    <       0.00000107 Ry

     iteration #  9     ecut=    30.00 Ry     beta= 0.30
     Davidson diagonalization with overlap
     ethr =  1.78E-09,  avg # of iterations =  2.5

     total cpu time spent up to now is     5156.5 secs

     total energy              =    -249.16745726 Ry
     Harris-Foulkes estimate   =    -249.16745726 Ry
     estimated scf accuracy    <       0.00000003 Ry

     iteration # 10     ecut=    30.00 Ry     beta= 0.30
     Davidson diagonalization with overlap
     ethr =  5.25E-11,  avg # of iterations =  3.6

     total cpu time spent up to now is     5312.1 secs

     total energy              =    -249.16745726 Ry
     Harris-Foulkes estimate   =    -249.16745726 Ry
     estimated scf accuracy    <       0.00000003 Ry

     iteration # 11     ecut=    30.00 Ry     beta= 0.30
     Davidson diagonalization with overlap
     ethr =  4.83E-11,  avg # of iterations =  1.0

     total cpu time spent up to now is     5447.4 secs

     total energy              =    -249.16745726 Ry
     Harris-Foulkes estimate   =    -249.16745726 Ry
     estimated scf accuracy    <       0.00000003 Ry

     iteration # 12     ecut=    30.00 Ry     beta= 0.30
     Davidson diagonalization with overlap
     ethr =  4.83E-11,  avg # of iterations =  2.0

     total cpu time spent up to now is     5587.3 secs

     End of self-consistent calculation

          k = 0.0000 0.0000 0.0000 (  9779 PWs)   bands (ev):

    -7.7077  -7.4424  -7.0172  -6.4285  -5.6792  -4.7844  -3.7485  -2.5734
    -1.2700   0.2261   0.5800   0.5800   0.8244   0.8244   1.0282   1.2157
     1.2157   1.7591   1.7591   1.9400   1.9400   2.1933   2.1933   2.4544
     2.4544   2.5940   2.5940   3.1284   3.1284   3.1524   3.2892   3.2892
     3.9335   3.9335   4.2630   4.2630

          k = 0.0000 0.0625 0.0000 (  9815 PWs)   bands (ev):

    -7.6719  -7.4066  -6.9816  -6.3930  -5.6439  -4.7492  -3.7136  -2.5386
    -1.2353   0.0070   0.2557   0.2606   0.6127   0.6539   0.8570   1.0614
     1.2051   1.2485   1.7921   1.9033   1.9746   2.2314   2.4873   2.5738
     2.5811   2.7888   2.8432   3.1242   3.1855   3.2732   3.3222   3.6608
     3.7883   4.1008   4.2958   4.4224

          k = 0.0000 0.1250 0.0000 (  9819 PWs)   bands (ev):

    -7.5646  -7.2995  -6.8748  -6.2866  -5.5380  -4.6438  -3.6089  -2.4348
    -1.1325  -0.8986  -0.6459  -0.2419   0.3173   0.3628   0.7110   0.9553
     1.0281   1.1607   1.3471   1.8662   1.8909   2.0796   2.3188   2.5862
     2.7534   2.8436   3.2849   3.3999   3.4208   3.6620   3.8871   4.0265
     4.0742   4.2709   4.3941   4.8163

          k = 0.0000 0.1875 0.0000 (  9823 PWs)   bands (ev):

    -7.3858  -7.1211  -6.6969  -6.1094  -5.3615  -4.4684  -3.4343  -2.2612
    -1.7993  -1.5433  -1.1351  -0.9608  -0.5701   0.1483   0.5332   0.8749
     1.0037   1.1197   1.3261   1.5114   1.9750   2.0550   2.2432   2.5245
     2.7503   2.8271   3.2833   3.4488   3.5426   3.5850   4.2347   4.4170
     4.5583   4.8581   4.9737   5.0444

          k = 0.0000 0.2500 0.0000 (  9797 PWs)   bands (ev):

    -7.1361  -6.8717  -6.4481  -5.8615  -5.1149  -4.2231  -3.1906  -2.6509
    -2.3938  -2.0194  -1.9821  -1.4124  -0.7211  -0.6882   0.1757   0.7714
     1.1052   1.1715   1.3498   1.5581   1.7416   2.2586   2.2850   2.5081
     2.7205   2.9799   3.2435   3.6452   3.6753   3.7799   3.8143   4.4680
     4.7874   5.0728   5.1833   5.2844

          k = 0.0000 0.3125 0.0000 (  9769 PWs)   bands (ev):

    -6.8155  -6.5516  -6.1289  -5.5435  -4.7983  -3.9081  -3.4433  -3.1849
    -2.8776  -2.7712  -2.1984  -1.7089  -1.4693  -0.5990  -0.4135   0.4064
     1.0764   1.4005   1.5387   1.6453   1.8553   2.0367   2.5804   2.6967
     2.7778   3.2220   3.2758   3.5252   3.9557   4.0779   4.1104   4.3125
     4.5553   4.7997   4.8223   4.9806

          k = 0.0000 0.3750 0.0000 (  9732 PWs)   bands (ev):

    -6.4245  -6.1613  -5.7397  -5.1557  -4.4124  -4.1731  -3.9135  -3.5242
    -3.4976  -2.9217  -2.4958  -2.1888  -1.3300  -1.3138  -0.3018  -0.0389
     0.8428   1.4467   1.7622   2.0070   2.0951   2.2187   2.3986   2.9423
     3.0673   3.4971   3.6375   3.7221   3.8650   3.8917   4.1095   4.2613
     4.2853   4.4715   4.4852   4.5008

          k = 0.0000 0.4375 0.0000 (  9756 PWs)   bands (ev):

    -5.9641  -5.7016  -5.2811  -4.8373  -4.6989  -4.5766  -4.1592  -3.9578
    -3.5810  -3.0722  -2.8448  -2.0468  -1.9657  -0.9484  -0.8846   0.2035
     0.4018   1.4743   1.8803   2.1890   2.4336   2.6468   2.8253   2.8864
     3.2405   3.3693   3.4852   3.6887   3.7002   3.8764   3.9211   4.0642
     4.3234   4.4102   4.4201   4.8978

          k = 0.0000-0.5000 0.0000 (  9786 PWs)   bands (ev):

    -5.4347  -5.4347  -5.1731  -5.1731  -4.7541  -4.7541  -4.1738  -4.1738
    -3.4349  -3.4349  -2.5522  -2.5522  -1.5306  -1.5306  -0.3730  -0.3730
     0.9072   0.9072   2.3709   2.3709   2.6819   2.6819   2.9265   2.9265
     3.1387   3.1387   3.3178   3.3178   3.8618   3.8618   4.1005   4.1005
     4.3997   4.3997   4.5566   4.5566

          k = 0.0625 0.0625 0.0000 (  9809 PWs)   bands (ev):

    -7.6361  -7.3709  -6.9459  -6.3575  -5.6086  -4.7141  -3.6787  -2.5040
    -1.2010   0.0403   0.0403   0.2889   0.2889   0.2948   0.6867   0.6867
     1.0945   1.2376   1.2376   1.9442   1.9442   2.6055   2.6055   2.7834
     2.7834   2.8540   2.8540   3.2185   3.2669   3.2669   3.6760   3.6760
     3.9238   3.9238   4.5745   4.5745

          k = 0.0625 0.1250 0.0000 (  9834 PWs)   bands (ev):

    -7.5288  -7.2638  -6.8392  -6.2511  -5.5027  -4.6087  -3.5739  -2.4001
    -1.0984  -0.8646  -0.6125  -0.2085   0.1401   0.3498   0.3890   0.3966
     0.7875   1.0528   1.1937   1.3526   1.8855   2.0836   2.7074   2.8361
     2.8945   3.0256   3.3171   3.3452   3.6926   3.8242   3.9581   3.9764
     4.0998   4.3281   4.5883   4.8458

          k = 0.0625 0.1875 0.0000 (  9834 PWs)   bands (ev):

    -7.3502  -7.0854  -6.6613  -6.0739  -5.3263  -4.4333  -3.3995  -2.2268
    -1.7648  -1.5094  -1.1013  -0.9268  -0.5366   0.1800   0.3072   0.5566
     0.5670   0.9265   1.0687   1.3592   1.5028   2.0448   2.2230   2.8606
     3.0603   3.1257   3.1289   3.4790   3.6380   4.0385   4.1313   4.4608
     4.8117   4.8885   4.9906   5.1366

          k = 0.0625 0.2500 0.0000 (  9795 PWs)   bands (ev):

    -7.1004  -6.8361  -6.4126  -5.8262  -5.0797  -4.1881  -3.1556  -2.6162
    -2.3590  -1.9846  -1.9476  -1.3787  -0.6870  -0.6548   0.2074   0.5412
     0.7849   0.8049   1.1897   1.2070   1.5910   1.7592   2.3393   2.4561
     3.1094   3.2560   3.3105   3.6967   3.7473   3.8250   4.2668   4.3685
     4.8250   4.9473   4.9905   5.1902

          k = 0.0625 0.3125 0.0000 (  9745 PWs)   bands (ev):

    -6.7799  -6.5161  -6.0934  -5.5082  -4.7632  -3.8733  -3.4086  -3.1502
    -2.8429  -2.7366  -2.1638  -1.6743  -1.4349  -0.5655  -0.3795   0.4370
     0.8398   1.0930   1.1095   1.4406   1.6386   1.8884   2.0506   2.7517
     2.8211   3.3798   3.5950   3.7440   3.8545   4.1190   4.2035   4.2647
     4.3463   4.6112   4.6627   4.6703

          k = 0.0625 0.3750 0.0000 (  9755 PWs)   bands (ev):

    -6.3891  -6.1259  -5.7044  -5.1206  -4.3774  -4.1381  -3.8786  -3.4895
    -3.4629  -2.8872  -2.4615  -2.1544  -1.2961  -1.2798  -0.2686  -0.0052
     0.8705   1.2098   1.4486   1.4785   1.8689   2.1582   2.2513   2.4153
     3.1118   3.3240   3.4840   3.5829   3.9482   3.9560   3.9800   4.0810
     4.3620   4.3837   4.4829   4.5297

          k = 0.0625 0.4375 0.0000 (  9745 PWs)   bands (ev):

    -5.9287  -5.6663  -5.2459  -4.8022  -4.6638  -4.5416  -4.1243  -3.9227
    -3.5462  -3.0374  -2.8101  -2.0125  -1.9312  -0.9145  -0.8507   0.2363
     0.4349   1.4909   1.6357   1.9049   1.9194   2.2970   2.6780   2.7183
     2.8451   2.9599   2.9734   3.3550   3.5528   3.7234   3.9051   4.2464
     4.3975   4.5061   4.5902   4.7089

          k = 0.0625-0.5000 0.0000 (  9778 PWs)   bands (ev):

    -5.3995  -5.3995  -5.1379  -5.1379  -4.7190  -4.7190  -4.1388  -4.1388
    -3.4001  -3.4001  -2.5175  -2.5175  -1.4962  -1.4962  -0.3393  -0.3393
     0.9388   0.9388   2.1008   2.1008   2.3992   2.3992   2.4594   2.4594
     2.7932   2.7932   3.1651   3.1651   3.3491   3.3491   4.0445   4.0445
     4.6343   4.6343   4.8858   4.8859

          k = 0.1250 0.1250 0.0000 (  9813 PWs)   bands (ev):

    -7.4216  -7.1567  -6.7324  -6.1448  -5.3968  -4.5035  -3.4691  -2.2958
    -0.9951  -0.7630  -0.7630  -0.5111  -0.5111  -0.1082  -0.1082   0.4488
     0.4488   0.4990   1.1701   1.1701   1.2929   2.0333   2.0333   3.0063
     3.0063   3.4127   3.7832   3.7832   4.0279   4.0279   4.1011   4.1011
     4.5242   4.5242   4.9241   5.0034

          k = 0.1250 0.1875 0.0000 (  9816 PWs)   bands (ev):

    -7.2431  -6.9786  -6.5547  -5.9677  -5.2206  -4.3282  -3.2949  -2.1229
    -1.6615  -1.4068  -0.9995  -0.8240  -0.5941  -0.4366  -0.3423   0.0612
     0.2709   0.6381   0.6687   1.1184   1.3794   1.4584   2.1384   2.2081
     3.1486   3.2933   3.5626   3.9589   4.1303   4.2884   4.6457   4.6525
     4.7940   4.8501   4.9946   5.1824

          k = 0.1250 0.2500 0.0000 (  9780 PWs)   bands (ev):

    -6.9936  -6.7294  -6.3061  -5.7201  -4.9741  -4.0830  -3.0512  -2.5125
    -2.2553  -1.8811  -1.8447  -1.2766  -0.5847  -0.5554  -0.3572  -0.1049
     0.2361   0.3761   0.8500   0.9056   1.3393   1.5850   1.6898   2.4308
     2.4527   3.4178   3.6658   3.6764   4.1118   4.1508   4.1667   4.5031
     4.5495   4.5654   4.8811   5.1088

          k = 0.1250 0.3125 0.0000 (  9759 PWs)   bands (ev):

    -6.6733  -6.4096  -5.9872  -5.4024  -4.6579  -3.7686  -3.3044  -3.0462
    -2.7389  -2.6327  -2.0605  -1.5712  -1.3327  -0.4663  -0.2776  -0.0524
     0.1901   0.5450   0.6034   1.1835   1.2080   1.6965   1.8868   1.9868
     2.7168   2.9661   3.1415   3.4111   3.7033   3.8114   4.1809   4.2692
     4.3655   4.6819   4.7819   4.7945

          k = 0.1250 0.3750 0.0000 (  9737 PWs)   bands (ev):

    -6.2827  -6.0197  -5.5984  -5.0150  -4.2723  -4.0334  -3.7739  -3.3850
    -3.3585  -2.7832  -2.3577  -2.0510  -1.1933  -1.1774  -0.1702   0.0957
     0.3154   0.5728   0.8822   1.0885   1.5437   1.5681   2.2503   2.2592
     2.3480   2.4799   2.7227   3.1015   3.1209   3.6752   3.6797   4.1204
     4.3611   4.4384   4.5339   4.8870

          k = 0.1250 0.4375 0.0000 (  9737 PWs)   bands (ev):

    -5.8227  -5.5604  -5.1404  -4.6970  -4.5586  -4.4365  -4.0195  -3.8180
    -3.4418  -2.9331  -2.7062  -1.9089  -1.8280  -0.8130  -0.7486   0.3308
     0.5333   0.7571   0.9934   1.4278   1.6413   1.7595   1.9781   2.0946
     2.0974   2.4911   2.6760   2.7702   3.0513   3.1039   3.5110   3.7516
     3.8545   4.5255   4.5996   4.9066

          k = 0.1250-0.5000 0.0000 (  9742 PWs)   bands (ev):

    -5.2938  -5.2938  -5.0324  -5.0324  -4.6138  -4.6138  -4.0340  -4.0340
    -3.2958  -3.2958  -2.4137  -2.4137  -1.3934  -1.3934  -0.2387  -0.2387
     1.0211   1.0211   1.2506   1.2506   1.5466   1.5466   1.9257   1.9257
     2.4770   2.4770   2.5361   2.5361   3.1931   3.1931   3.2650   3.2650
     4.0451   4.0451   5.0003   5.0003

          k = 0.1875 0.1875 0.0000 (  9787 PWs)   bands (ev):

    -7.0648  -6.8005  -6.3771  -5.7907  -5.0444  -4.1530  -3.1210  -1.9505
    -1.4905  -1.4905  -1.2364  -1.2364  -0.8302  -0.8302  -0.6533  -0.2690
    -0.2690   0.4597   0.4597   0.8375   1.3303   1.3303   1.6237   2.3155
     2.3155   3.4392   3.4392   3.6007   4.0678   4.1015   4.5183   4.6641
     4.6641   5.0615   5.1404   5.1404

          k = 0.1875 0.2500 0.0000 (  9764 PWs)   bands (ev):

    -6.8156  -6.5517  -6.1289  -5.5434  -4.7983  -3.9081  -2.8776  -2.3396
    -2.0833  -1.7090  -1.6737  -1.2516  -1.1072  -0.9979  -0.5912  -0.4143
    -0.3955  -0.0091   0.4613   0.7335   1.0722   1.4842   1.5726   1.8544
     2.5115   2.6672   3.0304   3.3034   3.6347   3.7050   3.9231   4.0619
     4.2603   4.8612   4.9702   5.2325

          k = 0.1875 0.3125 0.0000 (  9765 PWs)   bands (ev):

    -6.4957  -6.2323  -5.8104  -5.2262  -4.4825  -3.5940  -3.1310  -2.8729
    -2.5655  -2.4601  -1.8891  -1.3995  -1.1642  -0.9445  -0.6903  -0.3594
    -0.2153  -0.1086   0.2710   0.7399   1.0096   1.3649   1.8611   1.8622
     2.1492   2.3077   2.5514   2.8551   2.9509   3.1182   3.5068   3.9873
     4.1907   4.3588   4.5391   5.0541

          k = 0.1875 0.3750 0.0000 (  9744 PWs)   bands (ev):

    -6.1057  -5.8429  -5.4220  -4.8392  -4.0973  -3.8591  -3.5998  -3.2110
    -3.1849  -2.6105  -2.1851  -1.8795  -1.0224  -1.0092  -0.5699  -0.3268
     0.0087   0.0908   0.2622   0.6729   1.1633   1.3814   1.5086   1.8414
     1.8570   2.2111   2.2550   2.4502   2.5059   2.8171   3.2053   3.5193
     3.9128   4.2935   4.3704   4.6921

          k = 0.1875 0.4375 0.0000 (  9716 PWs)   bands (ev):

    -5.6461  -5.3841  -4.9644  -4.5218  -4.3834  -4.2616  -3.8450  -3.6436
    -3.2680  -2.7597  -2.5334  -1.7369  -1.6568  -0.6459  -0.5793  -0.1320
     0.1270   0.4247   0.6315   0.6844   0.9414   1.1034   1.2398   1.6207
     1.7953   1.8134   2.1742   2.2057   2.6690   2.8942   2.9355   3.2376
     3.6995   3.7503   3.9822   4.7099

          k = 0.1875-0.5000 0.0000 (  9738 PWs)   bands (ev):

    -5.1179  -5.1179  -4.8567  -4.8567  -4.4385  -4.4385  -3.8593  -3.8593
    -3.1220  -3.1220  -2.2411  -2.2411  -1.2228  -1.2228  -0.0754  -0.0754
     0.3793   0.3793   0.6158   0.6158   1.0539   1.0539   1.2415   1.2415
     1.6071   1.6071   2.3056   2.3056   2.7157   2.7157   3.1408   3.1408
     3.4673   3.4673   4.1674   4.1674

          k = 0.2500 0.2500 0.0000 (  9759 PWs)   bands (ev):

    -6.5666  -6.3031  -5.8810  -5.2966  -4.5526  -3.6638  -2.6348  -2.0987
    -2.0987  -1.8431  -1.8431  -1.4682  -1.4346  -1.4346  -0.8702  -0.8702
    -0.1766  -0.1369  -0.1369   0.7358   0.7358   1.2972   1.7273   1.7273
     2.0835   2.2480   2.4919   2.8602   2.8602   2.8915   3.4482   4.1157
     4.1157   4.1316   4.2979   4.9966

          k = 0.2500 0.3125 0.0000 (  9760 PWs)   bands (ev):

    -6.2474  -5.9843  -5.5631  -4.9798  -4.2373  -3.3502  -2.8882  -2.6307
    -2.3233  -2.2191  -1.7901  -1.6499  -1.5347  -1.1596  -1.1259  -0.9344
    -0.5411  -0.0706   0.1263   0.1999   0.9494   1.0488   1.3804   1.7107
[...]
    -1.7654  -1.4819  -1.0637  -0.9390  -0.5017   0.2069   0.3063   0.5472
     0.5838   0.9565   1.0946   1.3414   1.5396   2.0494   2.2503   2.8555
     3.0787   3.1332   3.1573   3.4719   3.6645   4.0443   4.1633   4.4494
     4.8377   4.8848   4.9594   5.1366

          k = 0.0625 0.2500 0.0000 (  9795 PWs)   bands (ev):

    -7.1008  -6.8088  -6.3756  -5.7922  -5.0541  -4.1723  -3.1518  -2.6168
    -2.3315  -1.9924  -1.9102  -1.3440  -0.6991  -0.6284   0.2242   0.5401
     0.7851   0.8112   1.2150   1.2287   1.5734   1.7935   2.3323   2.4839
     3.1104   3.2742   3.3307   3.6897   3.7433   3.8596   4.2725   4.4016
     4.8240   4.9638   4.9958   5.1938

          k = 0.0625 0.3125 0.0000 (  9745 PWs)   bands (ev):

    -6.7803  -6.4887  -6.0565  -5.4742  -4.7376  -3.8574  -3.4091  -3.1228
    -2.8389  -2.6993  -2.1294  -1.6820  -1.4088  -0.5489  -0.3914   0.4415
     0.8384   1.0898   1.1214   1.4683   1.6431   1.8709   2.0862   2.7796
     2.8127   3.3796   3.6133   3.7687   3.8491   4.1545   4.2010   4.2929
     4.3327   4.6131   4.6943   4.7099

          k = 0.0625 0.3750 0.0000 (  9755 PWs)   bands (ev):

    -6.3895  -6.0986  -5.6674  -5.0865  -4.3517  -4.1386  -3.8512  -3.4736
    -3.4258  -2.8529  -2.4575  -2.1284  -1.3037  -1.2635  -0.2640  -0.0170
     0.8634   1.2099   1.4591   1.4764   1.9066   2.1478   2.2341   2.4513
     3.1390   3.3224   3.4743   3.6111   3.9474   3.9658   4.0184   4.1085
     4.3470   4.3785   4.5192   4.5662

          k = 0.0625 0.4375 0.0000 (  9745 PWs)   bands (ev):

    -5.9291  -5.6389  -5.2089  -4.8027  -4.6297  -4.5143  -4.0872  -3.8970
    -3.5120  -3.0214  -2.7842  -2.0083  -1.9150  -0.9101  -0.8582   0.2291
     0.4234   1.4824   1.6350   1.8863   1.9447   2.3353   2.6614   2.7166
     2.8812   2.9558   2.9876   3.3937   3.5806   3.7081   3.9415   4.2436
     4.4155   4.5332   4.6131   4.7077

          k = 0.0625-0.5000 0.0000 (  9778 PWs)   bands (ev):

    -5.3999  -5.3999  -5.1105  -5.1105  -4.6819  -4.6819  -4.1047  -4.1047
    -3.3743  -3.3743  -2.5014  -2.5014  -1.4920  -1.4920  -0.3466  -0.3466
     0.9277   0.9277   2.0986   2.0986   2.4271   2.4271   2.4419   2.4419
     2.8318   2.8318   3.1499   3.1499   3.3839   3.3839   4.0726   4.0726
     4.6304   4.6304   4.9042   4.9042

          k = 0.1250 0.1250 0.0000 (  9813 PWs)   bands (ev):

    -7.4220  -7.1294  -6.6954  -6.1108  -5.3713  -4.4877  -3.4653  -2.3037
    -1.0074  -0.7636  -0.7636  -0.4834  -0.4834  -0.0704  -0.0704   0.4791
     0.4830   0.4830   1.1988   1.1988   1.2752   2.0499   2.0499   3.0115
     3.0115   3.4055   3.7794   3.7794   4.0544   4.0544   4.1096   4.1096
     4.5517   4.5517   4.8929   5.0315

          k = 0.1250 0.1875 0.0000 (  9816 PWs)   bands (ev):

    -7.2435  -6.9512  -6.5177  -5.9337  -5.1950  -4.3124  -3.2911  -2.1307
    -1.6621  -1.3793  -0.9619  -0.8361  -0.5946  -0.4017  -0.3147   0.0980
     0.2962   0.6489   0.6751   1.1407   1.4021   1.4407   2.1416   2.2269
     3.1494   3.2913   3.5555   3.9597   4.1495   4.2864   4.6376   4.6881
     4.7931   4.8606   4.9953   5.2103

          k = 0.1250 0.2500 0.0000 (  9780 PWs)   bands (ev):

    -6.9939  -6.7020  -6.2692  -5.6861  -4.9486  -4.0672  -3.0473  -2.5130
    -2.2279  -1.8889  -1.8073  -1.2419  -0.5967  -0.5287  -0.3580  -0.0782
     0.2593   0.4083   0.8858   0.8864   1.3436   1.6113   1.6723   2.4458
     2.4483   3.4236   3.6597   3.6686   4.1100   4.1665   4.1789   4.5181
     4.5520   4.6049   4.9174   5.1414

          k = 0.1250 0.3125 0.0000 (  9759 PWs)   bands (ev):

    -6.6736  -6.3823  -5.9502  -5.3684  -4.6323  -3.7527  -3.3050  -3.0188
    -2.7349  -2.5954  -2.0261  -1.5789  -1.3065  -0.4497  -0.2895  -0.0536
     0.2151   0.5542   0.6422   1.1884   1.2170   1.6888   1.9142   1.9694
     2.7315   2.9586   3.1395   3.4392   3.7088   3.8491   4.1769   4.2609
     4.4014   4.6722   4.7881   4.8095

          k = 0.1250 0.3750 0.0000 (  9737 PWs)   bands (ev):

    -6.2831  -5.9924  -5.5614  -4.9810  -4.2467  -4.0339  -3.7466  -3.3690
    -3.3213  -2.7489  -2.3537  -2.0250  -1.2009  -1.1611  -0.1658   0.0841
     0.3139   0.6013   0.9009   1.1014   1.5493   1.5784   2.2481   2.2774
     2.3311   2.4780   2.7503   3.1194   3.1591   3.6650   3.7110   4.1236
     4.3854   4.4244   4.5319   4.8843

          k = 0.1250 0.4375 0.0000 (  9737 PWs)   bands (ev):

    -5.8231  -5.5331  -5.1033  -4.6974  -4.5245  -4.4092  -3.9824  -3.7923
    -3.4076  -2.9171  -2.6803  -1.9048  -1.8118  -0.8086  -0.7560   0.3234
     0.5221   0.7574   1.0209   1.4648   1.6304   1.7558   2.0135   2.0809
     2.1223   2.5291   2.7018   2.7542   3.0860   3.0873   3.5267   3.7793
     3.8407   4.5307   4.6174   4.9012

          k = 0.1250-0.5000 0.0000 (  9742 PWs)   bands (ev):

    -5.2942  -5.2942  -5.0051  -5.0051  -4.5767  -4.5767  -3.9998  -3.9998
    -3.2700  -3.2700  -2.3977  -2.3977  -1.3892  -1.3892  -0.2461  -0.2461
     1.0123   1.0123   1.2501   1.2501   1.5717   1.5717   1.9634   1.9634
     2.5123   2.5123   2.5173   2.5173   3.2203   3.2203   3.2492   3.2492
     4.0623   4.0623   5.0053   5.0053

          k = 0.1875 0.1875 0.0000 (  9787 PWs)   bands (ev):

    -7.0652  -6.7732  -6.3402  -5.7567  -5.0189  -4.1373  -3.1171  -1.9583
    -1.4911  -1.4911  -1.2087  -1.2087  -0.7926  -0.7926  -0.6653  -0.2354
    -0.2354   0.4883   0.4883   0.8178   1.3464   1.3464   1.6061   2.3207
     2.3207   3.4329   3.4329   3.5944   4.0661   4.1296   4.5579   4.6553
     4.6553   5.0934   5.1399   5.1399

          k = 0.1875 0.2500 0.0000 (  9764 PWs)   bands (ev):

    -6.8160  -6.5243  -6.0919  -5.5094  -4.7727  -3.8923  -2.8736  -2.3401
    -2.0559  -1.7167  -1.6362  -1.2520  -1.0726  -0.9704  -0.5547  -0.4262
    -0.3706   0.0276   0.4831   0.7559   1.0526   1.4867   1.5916   1.8369
     2.5113   2.6660   3.0283   3.3315   3.6287   3.7424   3.9117   4.0583
     4.2961   4.8526   4.9976   5.2229

          k = 0.1875 0.3125 0.0000 (  9765 PWs)   bands (ev):

    -6.4961  -6.2050  -5.7734  -5.1921  -4.4568  -3.5781  -3.1315  -2.8455
    -2.5615  -2.4228  -1.8545  -1.4072  -1.1378  -0.9452  -0.6638  -0.3380
    -0.1819  -0.1203   0.3072   0.7439   1.0355   1.3460   1.8552   1.8783
     2.1323   2.3057   2.5789   2.8609   2.9889   3.1078   3.5424   3.9803
     4.2140   4.3578   4.5247   5.0716

          k = 0.1875 0.3750 0.0000 (  9744 PWs)   bands (ev):

    -6.1061  -5.8155  -5.3850  -4.8051  -4.0716  -3.8596  -3.5724  -3.1951
    -3.1477  -2.5761  -2.1811  -1.8534  -1.0300  -0.9928  -0.5711  -0.3021
     0.0178   0.1294   0.2509   0.7061   1.1552   1.4086   1.5041   1.8254
     1.8846   2.2245   2.2928   2.4432   2.4897   2.8516   3.2107   3.5468
     3.8955   4.2876   4.3880   4.6747

          k = 0.1875 0.4375 0.0000 (  9716 PWs)   bands (ev):

    -5.6465  -5.3568  -4.9274  -4.5222  -4.3493  -4.2343  -3.8079  -3.6179
    -3.2337  -2.7437  -2.5075  -1.7328  -1.6405  -0.6417  -0.5867  -0.1336
     0.1554   0.4403   0.6471   0.6754   0.9409   1.1378   1.2650   1.6581
     1.7840   1.8402   2.1868   2.2092   2.6867   2.9195   2.9212   3.2222
     3.7020   3.7673   3.9674   4.7150

          k = 0.1875-0.5000 0.0000 (  9738 PWs)   bands (ev):

    -5.1183  -5.1183  -4.8294  -4.8294  -4.4014  -4.4014  -3.8251  -3.8251
    -3.0961  -3.0961  -2.2250  -2.2250  -1.2185  -1.2185  -0.0829  -0.0829
     0.3797   0.3797   0.6431   0.6431   1.0907   1.0907   1.2304   1.2304
     1.6423   1.6423   2.3306   2.3306   2.6991   2.6991   3.1556   3.1556
     3.4540   3.4540   4.1724   4.1724

          k = 0.2500 0.2500 0.0000 (  9759 PWs)   bands (ev):

    -6.5670  -6.2758  -5.8440  -5.2625  -4.5269  -3.6479  -2.6309  -2.0992
    -2.0992  -1.8155  -1.8155  -1.4759  -1.3972  -1.3972  -0.8368  -0.8368
    -0.1883  -0.1087  -0.1087   0.7516   0.7516   1.2783   1.7324   1.7324
     2.0666   2.2460   2.5194   2.8539   2.8539   2.9296   3.4837   4.1048
     4.1048   4.1545   4.2972   5.0141

          k = 0.2500 0.3125 0.0000 (  9760 PWs)   bands (ev):

    -6.2478  -5.9570  -5.5261  -4.9458  -4.2116  -3.3343  -2.8887  -2.6033
    -2.3193  -2.1817  -1.7904  -1.6154  -1.5072  -1.1672  -1.0895  -0.9096
    -0.5047  -0.0495   0.1149   0.2225   0.9515   1.0679   1.3757   1.6949
     1.7604   1.9846   2.1458   2.1690   2.3571   2.7291   3.1106   3.4012
     3.4254   4.2680   4.3499   4.5543

          k = 0.2500 0.3750 0.0000 (  9712 PWs)   bands (ev):

    -5.8584  -5.5683  -5.1384  -4.5595  -3.8270  -3.6155  -3.3289  -2.9518
    -2.9049  -2.3345  -1.9396  -1.6149  -1.4129  -1.1307  -0.8077  -0.7916
    -0.6509  -0.1540   0.2709   0.4730   0.5746   0.7497   1.0740   1.3885
     1.4215   1.4682   1.9860   2.0204   2.4084   2.6481   2.7214   2.7345
     3.5328   3.5825   4.0859   4.5308

          k = 0.2500 0.4375 0.0000 (  9748 PWs)   bands (ev):

    -5.3997  -5.1103  -4.6816  -4.2774  -4.1044  -3.9898  -3.5641  -3.3740
    -2.9909  -2.5013  -2.2663  -1.4929  -1.4028  -0.9691  -0.6995  -0.3879
    -0.3546  -0.2660   0.1200   0.3112   0.3841   0.7500   0.8323   0.9605
     1.0178   1.3858   1.8327   2.0477   2.0746   2.4345   2.8246   2.9004
     3.1937   3.5092   3.9018   3.9234

          k = 0.2500-0.5000 0.0000 (  9726 PWs)   bands (ev):

    -4.8724  -4.8724  -4.5838  -4.5838  -4.1564  -4.1564  -3.5810  -3.5810
    -2.8531  -2.8531  -1.9841  -1.9841  -0.9826  -0.9826  -0.4623  -0.4623
    -0.1727  -0.1727   0.1085   0.1085   0.3135   0.3135   0.8123   0.8123
     1.4489   1.4489   1.5174   1.5174   2.3668   2.3668   2.8923   2.8923
     3.3871   3.3871   3.6382   3.6382

          k = 0.3125 0.3125 0.0000 (  9744 PWs)   bands (ev):

    -5.9291  -5.6389  -5.2088  -4.6296  -3.8968  -3.0212  -2.5772  -2.5772
    -2.2928  -2.2928  -2.0085  -1.8729  -1.8729  -1.3099  -1.3099  -0.8599
    -0.5786  -0.5786   0.2822   0.2822   0.4053   0.6849   1.0093   1.2677
     1.2677   1.4041   1.9183   1.9564   2.3945   2.3945   2.6546   2.6710
     3.5195   3.6523   3.6523   4.4681

          k = 0.3125 0.3750 0.0000 (  9736 PWs)   bands (ev):

    -5.5406  -5.2510  -4.8220  -4.2443  -3.5132  -3.3026  -3.0166  -2.6400
    -2.5938  -2.1982  -2.0259  -1.9141  -1.6306  -1.4950  -1.3169  -0.9092
    -0.4906  -0.4513  -0.1837  -0.0111   0.2535   0.5465   0.6697   0.7015
     0.8250   1.2559   1.5844   1.7505   1.9450   2.3010   2.7158   2.7711
     3.0101   3.0631   3.7967   3.9605

          k = 0.3125 0.4375 0.0000 (  9760 PWs)   bands (ev):

    -5.0829  -4.7941  -4.3662  -3.9631  -3.7901  -3.6759  -3.2509  -3.0614
    -2.6793  -2.1913  -1.9580  -1.7513  -1.4679  -1.1879  -1.1455  -0.9901
    -0.6616  -0.4873  -0.3715  -0.0911  -0.0700   0.1109   0.2404   0.6142
     1.0524   1.0902   1.2466   1.3209   2.0802   2.1719   2.3159   2.6920
     3.1945   3.2082   3.4407   3.7593

          k = 0.3125-0.5000 0.0000 (  9722 PWs)   bands (ev):

    -4.5568  -4.5568  -4.2688  -4.2688  -3.8422  -3.8422  -3.2680  -3.2680
    -2.5421  -2.5421  -1.6770  -1.6770  -1.2376  -1.2376  -0.9669  -0.9669
    -0.6598  -0.6598  -0.5326  -0.5326   0.0443   0.0443   0.4786   0.4786
     0.7538   0.7538   1.5683   1.5683   1.7824   1.7824   2.5637   2.5637
     3.2466   3.2466   3.6419   3.6419

          k = 0.3750 0.3750 0.0000 (  9732 PWs)   bands (ev):

    -5.1532  -4.8642  -4.4363  -3.8600  -3.1309  -2.9208  -2.9208  -2.6357
    -2.6357  -2.2604  -2.2147  -2.2147  -1.6503  -1.6503  -1.2565  -0.9173
    -0.9173  -0.7280  -0.4378  -0.1578  -0.0560  -0.0560   0.0431   0.5481
     0.9330   0.9330   1.1790   1.2551   2.0632   2.0632   2.1068   2.6253
     3.1304   3.3249   3.3249   3.3750

          k = 0.3750 0.4375 0.0000 (  9737 PWs)   bands (ev):

    -4.6967  -4.4085  -3.9816  -3.5797  -3.4069  -3.2933  -2.8697  -2.6804
    -2.4717  -2.3005  -2.1871  -1.8145  -1.7671  -1.5896  -1.3725  -1.1810
    -1.1014  -0.7961  -0.7209  -0.6665  -0.4569  -0.0903   0.2744   0.3424
     0.4022   0.6206   1.3157   1.4351   1.4847   1.6489   2.4326   2.4506
     2.7467   3.1141   3.5115   3.6982

          k = 0.3750-0.5000 0.0000 (  9724 PWs)   bands (ev):

    -4.1720  -4.1720  -3.8845  -3.8845  -3.4590  -3.4590  -2.8867  -2.8867
    -2.1643  -2.1643  -1.9549  -1.9549  -1.6710  -1.6710  -1.3485  -1.3485
    -1.1945  -1.1945  -0.6883  -0.6883  -0.2753  -0.2753   0.0385   0.0385
     0.8501   0.8501   0.8901   0.8901   1.8822   1.8822   2.1158   2.1158
     3.0121   3.0121   3.5615   3.5615

          k = 0.4375 0.4375 0.0000 (  9776 PWs)   bands (ev):

    -4.2418  -3.9542  -3.5285  -3.1282  -3.1282  -2.9558  -2.8426  -2.8426
    -2.4208  -2.4208  -2.2331  -2.0233  -1.8551  -1.8551  -1.7392  -1.4164
    -1.2631  -1.1214  -1.1214  -0.7554  -0.3440  -0.2602  -0.2602  -0.0293
     0.7310   0.7310   0.7822   0.8228   1.8156   1.8630   1.8630   2.0486
     2.9458   3.1270   3.1270   3.4950

          k = 0.4375-0.5000 0.0000 (  9754 PWs)   bands (ev):

    -3.7187  -3.7187  -3.4318  -3.4318  -3.0078  -3.0078  -2.6090  -2.6090
    -2.4381  -2.4381  -2.3243  -2.3243  -1.9040  -1.9040  -1.7259  -1.7259
    -1.3175  -1.3175  -0.8557  -0.8557  -0.5943  -0.5943   0.1379   0.1379
     0.2679   0.2679   1.1810   1.1810   1.3515   1.3515   2.3173   2.3173
     2.6145   2.6145   3.5667   3.5667

          k =-0.5000-0.5000 0.0000 (  9748 PWs)   bands (ev):

    -3.1973  -3.1973  -3.1973  -3.1973  -2.9115  -2.9115  -2.9115  -2.9115
    -2.4894  -2.4894  -2.4894  -2.4894  -1.9236  -1.9236  -1.9236  -1.9236
    -1.1895  -1.1895  -1.1895  -1.1895  -0.3283  -0.3283  -0.3283  -0.3283
     0.6636   0.6636   0.6636   0.6636   1.7965   1.7965   1.7965   1.7965
     3.0611   3.0611   3.0611   3.0611

     the Fermi energy is     3.4740 ev

!    total energy              =    -249.16786210 Ry
     Harris-Foulkes estimate   =    -249.16786210 Ry
     estimated scf accuracy    <          4.5E-09 Ry

     The total energy is the sum of the following terms:

     one-electron contribution =   -1052.26124894 Ry
     hartree contribution      =     546.08903620 Ry
     xc contribution           =    -200.22971309 Ry
     ewald contribution        =     457.23462579 Ry
     smearing contrib. (-TS)   =      -0.00056205 Ry

     convergence has been achieved in  12 iterations

     Forces acting on atoms (cartesian axes, Ry/au):

     atom    1 type  1   force =     0.00000000    0.00000000    0.00003752
     atom    2 type  1   force =     0.00000000    0.00000000    0.00003752
     atom    3 type  1   force =     0.00000000    0.00000000   -0.00057528
     atom    4 type  1   force =     0.00000000    0.00000000   -0.00057528
     atom    5 type  1   force =     0.00000000    0.00000000   -0.00034818
     atom    6 type  1   force =     0.00000000    0.00000000   -0.00034815
     atom    7 type  1   force =     0.00000000    0.00000000    0.00023561
     atom    8 type  1   force =     0.00000000    0.00000000    0.00023561
     atom    9 type  1   force =     0.00000000    0.00000000    0.00006844
     atom   10 type  1   force =     0.00000000    0.00000000    0.00006845
     atom   11 type  1   force =     0.00000000    0.00000000   -0.00006852
     atom   12 type  1   force =     0.00000000    0.00000000   -0.00006852
     atom   13 type  1   force =     0.00000000    0.00000000   -0.00023555
     atom   14 type  1   force =     0.00000000    0.00000000   -0.00023557
     atom   15 type  1   force =     0.00000000    0.00000000    0.00034811
     atom   16 type  1   force =     0.00000000    0.00000000    0.00034811
     atom   17 type  1   force =     0.00000000    0.00000000    0.00057537
     atom   18 type  1   force =     0.00000000    0.00000000    0.00057535
     atom   19 type  1   force =     0.00000000    0.00000000   -0.00003752
     atom   20 type  1   force =     0.00000000    0.00000000   -0.00003752

     Total force =     0.001434     Total SCF correction =     0.000113


     Computing stress (Cartesian axis) and pressure

          total   stress  (Ry/bohr**3)                   (kbar)     P=   -9.66
  -0.00008863   0.00000000   0.00000000        -13.04      0.00      0.00
   0.00000000  -0.00008863   0.00000000          0.00    -13.04      0.00
   0.00000000   0.00000000  -0.00001973          0.00      0.00     -2.90


     bfgs converged in  10 scf cycles and   9 bfgs steps
     (criteria: energy <  1.0E-04 Ry, force <  1.0E-03 Ry/Bohr)

     End of BFGS Geometry Optimization

     Final energy   =    -249.1678620963 Ry
Begin final coordinates

ATOMIC_POSITIONS (crystal)
Al       0.000000000   0.000000000  -0.000998163
Al       0.500000000   0.500000000  -0.000998163
Al       0.500000000   0.000000000   0.062681404
Al       0.000000000   0.500000000   0.062681404
Al       0.000000000   0.000000000   0.125441424
Al       0.500000000   0.500000000   0.125441421
Al       0.500000000   0.000000000   0.187852823
Al       0.000000000   0.500000000   0.187852823
Al       0.000000000   0.000000000   0.250129287
Al       0.500000000   0.500000000   0.250129285
Al       0.500000000   0.000000000   0.312370742
Al       0.000000000   0.500000000   0.312370742
Al       0.000000000   0.000000000   0.374647182
Al       0.500000000   0.500000000   0.374647186
Al       0.500000000   0.000000000   0.437058580
Al       0.000000000   0.500000000   0.437058580
Al       0.000000000   0.000000000   0.499818574
Al       0.500000000   0.500000000   0.499818579
Al       0.500000000   0.000000000   0.563498145
Al       0.000000000   0.500000000   0.563498145
End final coordinates



     Writing output data file Al_100_5_3.save/

     init_run     :    124.30s CPU    134.84s WALL (       1 calls)
     electrons    :  14173.83s CPU  15471.47s WALL (      10 calls)
     update_pot   :      6.45s CPU      6.62s WALL (       9 calls)
     forces       :    295.90s CPU    299.49s WALL (      10 calls)
     stress       :    393.83s CPU    396.15s WALL (      10 calls)

     Called by init_run:
     wfcinit      :    122.50s CPU    132.64s WALL (       1 calls)
     potinit      :      0.46s CPU      0.53s WALL (       1 calls)
     hinit0       :      0.81s CPU      1.00s WALL (       1 calls)

     Called by electrons:
     c_bands      :  12206.97s CPU  13264.14s WALL (     102 calls)
     sum_band     :   1767.05s CPU   1989.72s WALL (     102 calls)
     v_of_rho     :     26.75s CPU     28.03s WALL (     109 calls)
     newd         :     30.27s CPU     32.68s WALL (     109 calls)
     mix_rho      :    144.41s CPU    157.70s WALL (     102 calls)

     Called by c_bands:
     init_us_2    :     70.61s CPU     78.49s WALL (   10125 calls)
     cegterg      :  12076.36s CPU  13123.15s WALL (    4590 calls)

     Called by sum_band:
     sum_band:bec :      0.70s CPU      0.86s WALL (    4590 calls)
     addusdens    :     26.36s CPU     28.35s WALL (     102 calls)

     Called by *egterg:
     h_psi        :   6922.05s CPU   7892.64s WALL (   13795 calls)
     s_psi        :   1419.80s CPU   1433.87s WALL (   13795 calls)
     g_psi        :     26.78s CPU     30.70s WALL (    9160 calls)
     cdiaghg      :     79.68s CPU     87.77s WALL (   13210 calls)

     Called by h_psi:
     h_psi:pot    :   6898.74s CPU   7843.91s WALL (   13795 calls)
     h_psi:calbec :   1521.93s CPU   1532.94s WALL (   13795 calls)
     vloc_psi     :   3955.30s CPU   4879.28s WALL (   13795 calls)
     add_vuspsi   :   1419.66s CPU   1429.64s WALL (   13795 calls)

     General routines
     calbec       :   2536.76s CPU   2554.31s WALL (   20635 calls)
     fft          :     27.31s CPU     28.53s WALL (    1659 calls)
     ffts         :     90.22s CPU     98.77s WALL (   10244 calls)
     fftw         :   3987.15s CPU   4856.56s WALL (  904086 calls)
     interpolate  :      3.13s CPU      3.41s WALL (     109 calls)

     Parallel routines

     PWSCF        :      4h 9m CPU      4h31m WALL


   This run was terminated on:  11:11:39  27May2020            

=------------------------------------------------------------------------------=
   JOB DONE.
=------------------------------------------------------------------------------=
