
     Program PWSCF v.6.4.1 starts on 28May2020 at  0:25:17 

     This program is part of the open-source Quantum ESPRESSO suite
     for quantum simulation of materials; please cite
         "P. Giannozzi et al., J. Phys.:Condens. Matter 21 395502 (2009);
         "P. Giannozzi et al., J. Phys.:Condens. Matter 29 465901 (2017);
          URL http://www.quantum-espresso.org", 
     in publications or presentations arising from this work. More details at
     http://www.quantum-espresso.org/quote

     Parallel version (MPI & OpenMP), running on       1 processor cores
     Number of MPI processes:                 1
     Threads/MPI process:                     1

     MPI processes distributed on     1 nodes
     Reading input from Al_111_bulk_80.pw.in
Warning: card  &IONS ignored
Warning: card   ION_DYNAMICS = 'BFGS', ignored
Warning: card  / ignored
Warning: card  &CELL ignored
Warning: card  / ignored

     Current dimensions of program PWSCF are:
     Max number of different atomic species (ntypx) = 10
     Max number of k-points (npk) =  40000
     Max angular momentum in pseudopotentials (lmaxx) =  3

     Subspace diagonalization in iterative solution of the eigenvalue problem:
     a serial algorithm will be used

     Found symmetry operation: I + (  0.3333 -0.3333  0.3333)
     This is a supercell, fractional translations are disabled
 
     G-vector sticks info
     --------------------
     sticks:   dense  smooth     PW     G-vecs:    dense   smooth      PW
     Sum         595     595    379                28891    28891   14643
 


     bravais-lattice index     =            4
     lattice parameter (alat)  =       7.6050  a.u.
     unit-cell volume          =     933.0478 (a.u.)^3
     number of atoms/cell      =            3
     number of atomic types    =            1
     number of electrons       =         9.00
     number of Kohn-Sham states=            9
     kinetic-energy cutoff     =      80.0000  Ry
     charge density cutoff     =     150.0000  Ry
     convergence threshold     =      1.0E-08
     mixing beta               =       0.3000
     number of iterations used =            8  local-TF  mixing
     Exchange-correlation      =  SLA  PW   PBE  PBE ( 1  4  3  4 0 0)

     celldm(1)=   7.605000  celldm(2)=   0.000000  celldm(3)=   2.449490
     celldm(4)=   0.000000  celldm(5)=   0.000000  celldm(6)=   0.000000

     crystal axes: (cart. coord. in units of alat)
               a(1) = (   1.000000   0.000000   0.000000 )  
               a(2) = (  -0.500000   0.866025   0.000000 )  
               a(3) = (   0.000000   0.000000   2.449490 )  

     reciprocal axes: (cart. coord. in units 2 pi/alat)
               b(1) = (  1.000000  0.577350  0.000000 )  
               b(2) = (  0.000000  1.154701  0.000000 )  
               b(3) = (  0.000000  0.000000  0.408248 )  


     PseudoPot. # 1 for Al read from file:
     ./Al.pbe-n-van.UPF
     MD5 check sum: b11ded24487aef5bc42d5c7a2e22a7b6
     Pseudo is Ultrasoft + core correction, Zval =  3.0
     Generated by new atomic code, or converted to UPF format
     Using radial grid of  893 points,  2 beta functions with: 
                l(1) =   0
                l(2) =   1
     Q(r) pseudized with  8 coefficients,  rinner =    0.900   0.900   0.900


     atomic species   valence    mass     pseudopotential
        Al             3.00    26.98000     Al( 1.00)

     12 Sym. Ops., with inversion, found



   Cartesian axes

     site n.     atom                  positions (alat units)
         1           Al  tau(   1) = (   0.0000000   0.0000000   0.0000000  )
         2           Al  tau(   2) = (  -0.0000000   0.5773503   0.8164966  )
         3           Al  tau(   3) = (   0.5000000   0.2886751   1.6329932  )

     number of k points=   480  Marzari-Vanderbilt smearing, width (Ry)=  0.0250

     Number of k-points >= 100: set verbosity='high' to print them.

     Dense  grid:    28891 G-vectors     FFT dimensions: (  30,  30,  75)

     Estimated max dynamical RAM per process >     782.16 MB

     Initial potential from superposition of free atoms

     starting charge    8.99260, renormalised to    9.00000
     Starting wfcs are   12 randomized atomic wfcs

     total cpu time spent up to now is       16.5 secs

     Self-consistent Calculation

     iteration #  1     ecut=    80.00 Ry     beta= 0.30
     Davidson diagonalization with overlap
     ethr =  1.00E-02,  avg # of iterations =  2.5

     Threshold (ethr) on eigenvalues was too large:
     Diagonalizing with lowered threshold

     Davidson diagonalization with overlap
     ethr =  1.12E-04,  avg # of iterations =  2.8

     total cpu time spent up to now is       80.6 secs

     total energy              =     -37.02508059 Ry
     Harris-Foulkes estimate   =     -37.02566979 Ry
     estimated scf accuracy    <       0.01023348 Ry

     iteration #  2     ecut=    80.00 Ry     beta= 0.30
     Davidson diagonalization with overlap
     ethr =  1.14E-04,  avg # of iterations =  1.0

     total cpu time spent up to now is      105.2 secs

     total energy              =     -37.02331623 Ry
     Harris-Foulkes estimate   =     -37.02513772 Ry
     estimated scf accuracy    <       0.00688138 Ry

     iteration #  3     ecut=    80.00 Ry     beta= 0.30
     Davidson diagonalization with overlap
     ethr =  7.65E-05,  avg # of iterations =  1.0

     total cpu time spent up to now is      129.8 secs

     total energy              =     -37.02378280 Ry
     Harris-Foulkes estimate   =     -37.02377340 Ry
     estimated scf accuracy    <       0.00001530 Ry

     iteration #  4     ecut=    80.00 Ry     beta= 0.30
     Davidson diagonalization with overlap
     c_bands:  1 eigenvalues not converged
     ethr =  1.70E-07,  avg # of iterations =  4.3

     total cpu time spent up to now is      172.9 secs

     total energy              =     -37.02382703 Ry
     Harris-Foulkes estimate   =     -37.02382543 Ry
     estimated scf accuracy    <       0.00000430 Ry

     iteration #  5     ecut=    80.00 Ry     beta= 0.30
     Davidson diagonalization with overlap
     ethr =  4.78E-08,  avg # of iterations =  1.1

     total cpu time spent up to now is      197.5 secs

     total energy              =     -37.02382740 Ry
     Harris-Foulkes estimate   =     -37.02382728 Ry
     estimated scf accuracy    <       0.00000089 Ry

     iteration #  6     ecut=    80.00 Ry     beta= 0.30
     Davidson diagonalization with overlap
     ethr =  9.84E-09,  avg # of iterations =  2.0

     total cpu time spent up to now is      228.3 secs

     total energy              =     -37.02382740 Ry
     Harris-Foulkes estimate   =     -37.02382774 Ry
     estimated scf accuracy    <       0.00000098 Ry

     iteration #  7     ecut=    80.00 Ry     beta= 0.30
     Davidson diagonalization with overlap
     ethr =  9.84E-09,  avg # of iterations =  2.0

     total cpu time spent up to now is      259.0 secs

     total energy              =     -37.02382754 Ry
     Harris-Foulkes estimate   =     -37.02382763 Ry
     estimated scf accuracy    <       0.00000035 Ry

     iteration #  8     ecut=    80.00 Ry     beta= 0.30
     Davidson diagonalization with overlap
     ethr =  3.88E-09,  avg # of iterations =  1.0

     total cpu time spent up to now is      283.5 secs

     total energy              =     -37.02382755 Ry
     Harris-Foulkes estimate   =     -37.02382756 Ry
     estimated scf accuracy    <       0.00000003 Ry

     iteration #  9     ecut=    80.00 Ry     beta= 0.30
     Davidson diagonalization with overlap
     ethr =  3.86E-10,  avg # of iterations =  1.0

     total cpu time spent up to now is      308.1 secs

     End of self-consistent calculation

     Number of k-points >= 100: set verbosity='high' to print the bands.

     the Fermi energy is     0.7133 ev

!    total energy              =     -37.02382755 Ry
     Harris-Foulkes estimate   =     -37.02382755 Ry
     estimated scf accuracy    <          3.3E-09 Ry

     The total energy is the sum of the following terms:

     one-electron contribution =       3.18049536 Ry
     hartree contribution      =       0.36743159 Ry
     xc contribution           =     -29.06113939 Ry
     ewald contribution        =     -11.51001326 Ry
     smearing contrib. (-TS)   =      -0.00060186 Ry

     convergence has been achieved in   9 iterations

     Forces acting on atoms (cartesian axes, Ry/au):

     atom    1 type  1   force =     0.00000000    0.00000000    0.00000000
     atom    2 type  1   force =     0.00000000    0.00000000    0.00000001
     atom    3 type  1   force =     0.00000000    0.00000000   -0.00000001

     Total force =     0.000000     Total SCF correction =     0.000000
     SCF correction compared to forces is large: reduce conv_thr to get better values


     Computing stress (Cartesian axis) and pressure

          total   stress  (Ry/bohr**3)                   (kbar)     P=  -64.94
  -0.00044118   0.00000000   0.00000000        -64.90      0.00      0.00
   0.00000000  -0.00044118  -0.00000000          0.00    -64.90     -0.00
   0.00000000   0.00000000  -0.00044189          0.00      0.00    -65.00


     Writing output data file Al_111_bulk.save/
 
     init_run     :     15.78s CPU     16.48s WALL (       1 calls)
     electrons    :    289.90s CPU    291.60s WALL (       1 calls)
     forces       :      3.46s CPU      3.46s WALL (       1 calls)
     stress       :     19.75s CPU     19.79s WALL (       1 calls)

     Called by init_run:
     wfcinit      :     15.04s CPU     15.71s WALL (       1 calls)
     potinit      :      0.04s CPU      0.05s WALL (       1 calls)
     hinit0       :      0.66s CPU      0.68s WALL (       1 calls)

     Called by electrons:
     c_bands      :    241.29s CPU    242.56s WALL (      10 calls)
     sum_band     :     48.01s CPU     48.37s WALL (      10 calls)
     v_of_rho     :      0.36s CPU      0.37s WALL (      10 calls)
     newd         :      0.08s CPU      0.11s WALL (      10 calls)
     mix_rho      :      0.19s CPU      0.21s WALL (      10 calls)

     Called by c_bands:
     init_us_2    :     21.73s CPU     21.97s WALL (   11040 calls)
     cegterg      :    220.34s CPU    221.18s WALL (    4800 calls)

     Called by sum_band:
     sum_band:bec :      0.03s CPU      0.03s WALL (    4800 calls)
     addusdens    :      0.08s CPU      0.11s WALL (      10 calls)

     Called by *egterg:
     h_psi        :    180.39s CPU    181.29s WALL (   14268 calls)
     s_psi        :      5.70s CPU      5.74s WALL (   14268 calls)
     g_psi        :      6.26s CPU      6.29s WALL (    8988 calls)
     cdiaghg      :      2.26s CPU      2.32s WALL (   13308 calls)

     Called by h_psi:
     h_psi:pot    :    178.28s CPU    178.83s WALL (   14268 calls)
     h_psi:calbec :      6.19s CPU      6.21s WALL (   14268 calls)
     vloc_psi     :    166.17s CPU    166.67s WALL (   14268 calls)
     add_vuspsi   :      5.85s CPU      5.88s WALL (   14268 calls)

     General routines
     calbec       :      9.68s CPU      9.72s WALL (   21468 calls)
     fft          :      0.09s CPU      0.10s WALL (     136 calls)
     ffts         :      0.08s CPU      0.08s WALL (     126 calls)
     fftw         :    171.51s CPU    172.01s WALL (  262640 calls)
 
     Parallel routines
 
     PWSCF        :   5m29.34s CPU   5m40.58s WALL

 
   This run was terminated on:   0:30:58  28May2020            

=------------------------------------------------------------------------------=
   JOB DONE.
=------------------------------------------------------------------------------=
