--------------------------------------------------------------------------
[[18362,1],0]: A high-performance Open MPI point-to-point messaging module
was unable to find any relevant network interfaces:

Module: OpenFabrics (openib)
  Host: ubuntu

Another transport will be used instead, although this may result in
lower performance.
--------------------------------------------------------------------------

     Program PWSCF v.5.1 starts on 27May2020 at 22:44:32 

     This program is part of the open-source Quantum ESPRESSO suite
     for quantum simulation of materials; please cite
         "P. Giannozzi et al., J. Phys.:Condens. Matter 21 395502 (2009);
          URL http://www.quantum-espresso.org", 
     in publications or presentations arising from this work. More details at
     http://www.quantum-espresso.org/quote

     Parallel version (MPI), running on     1 processors
     Reading input from Al_111_bulk_30.pw.in
Warning: card  &IONS ignored
Warning: card   ION_DYNAMICS = 'BFGS', ignored
Warning: card  / ignored
Warning: card  &CELL ignored
Warning: card  / ignored

     Current dimensions of program PWSCF are:
     Max number of different atomic species (ntypx) = 10
     Max number of k-points (npk) =  40000
     Max angular momentum in pseudopotentials (lmaxx) =  3

     Subspace diagonalization in iterative solution of the eigenvalue problem:
     a serial algorithm will be used

     Found symmetry operation: I + (  0.3333 -0.3333  0.3333)
     This is a supercell, fractional translations are disabled

     G-vector sticks info
     --------------------
     sticks:   dense  smooth     PW     G-vecs:    dense   smooth      PW
     Sum         595     475    163                28891    20639    3907



     bravais-lattice index     =            4
     lattice parameter (alat)  =       7.6050  a.u.
     unit-cell volume          =     933.0478 (a.u.)^3
     number of atoms/cell      =            3
     number of atomic types    =            1
     number of electrons       =         9.00
     number of Kohn-Sham states=            9
     kinetic-energy cutoff     =      30.0000  Ry
     charge density cutoff     =     150.0000  Ry
     convergence threshold     =      1.0E-08
     mixing beta               =       0.3000
     number of iterations used =            8  local-TF  mixing
     Exchange-correlation      =  SLA  PW   PBE  PBE ( 1  4  3  4 0)

     celldm(1)=   7.605000  celldm(2)=   0.000000  celldm(3)=   2.449490
     celldm(4)=   0.000000  celldm(5)=   0.000000  celldm(6)=   0.000000

     crystal axes: (cart. coord. in units of alat)
               a(1) = (   1.000000   0.000000   0.000000 )  
               a(2) = (  -0.500000   0.866025   0.000000 )  
               a(3) = (   0.000000   0.000000   2.449490 )  

     reciprocal axes: (cart. coord. in units 2 pi/alat)
               b(1) = (  1.000000  0.577350 -0.000000 )  
               b(2) = (  0.000000  1.154701  0.000000 )  
               b(3) = (  0.000000 -0.000000  0.408248 )  


     PseudoPot. # 1 for Al read from file:
     ./Al.pbe-n-van.UPF
     MD5 check sum: b11ded24487aef5bc42d5c7a2e22a7b6
     Pseudo is Ultrasoft + core correction, Zval =  3.0
     Generated by new atomic code, or converted to UPF format
     Using radial grid of  893 points,  2 beta functions with: 
                l(1) =   0
                l(2) =   1
     Q(r) pseudized with  8 coefficients,  rinner =    0.900   0.900   0.900


     atomic species   valence    mass     pseudopotential
        Al             3.00    26.98000     Al( 1.00)

     12 Sym. Ops., with inversion, found



   Cartesian axes

     site n.     atom                  positions (alat units)
         1           Al  tau(   1) = (   0.0000000   0.0000000   0.0000000  )
         2           Al  tau(   2) = (  -0.0000000   0.5773503   0.8164966  )
         3           Al  tau(   3) = (   0.5000000   0.2886751   1.6329932  )

     number of k points=   480  Marzari-Vanderbilt smearing, width (Ry)=  0.0250

     Number of k-points >= 100: set verbosity='high' to print them.

     Dense  grid:    28891 G-vectors     FFT dimensions: (  30,  30,  75)

     Smooth grid:    20639 G-vectors     FFT dimensions: (  27,  27,  72)

     Largest allocated arrays     est. size (Mb)     dimensions
        Kohn-Sham Wavefunctions         0.36 Mb     (    2627,    9)
        NL pseudopotentials             0.48 Mb     (    2627,   12)
        Each V/rho on FFT grid          1.03 Mb     (   67500)
        Each G-vector array             0.22 Mb     (   28891)
        G-vector shells                 0.01 Mb     (    1099)
     Largest temporary arrays     est. size (Mb)     dimensions
        Auxiliary wavefunctions         1.44 Mb     (    2627,   36)
        Each subspace H/S matrix        0.02 Mb     (      36,   36)
        Each <psi_i|beta_j> matrix      0.00 Mb     (      12,    9)
        Arrays for rho mixing           8.24 Mb     (   67500,    8)

     Initial potential from superposition of free atoms

     starting charge    8.99260, renormalised to    9.00000
     Starting wfc are   12 randomized atomic wfcs

     total cpu time spent up to now is       20.0 secs

     per-process dynamical memory:   193.9 Mb

     Self-consistent Calculation

     iteration #  1     ecut=    30.00 Ry     beta=0.30
     Davidson diagonalization with overlap
     ethr =  1.00E-02,  avg # of iterations =  2.3

     Threshold (ethr) on eigenvalues was too large:
     Diagonalizing with lowered threshold

     Davidson diagonalization with overlap
     ethr =  1.12E-04,  avg # of iterations =  2.8

     total cpu time spent up to now is      106.0 secs

     total energy              =     -37.02318065 Ry
     Harris-Foulkes estimate   =     -37.02380872 Ry
     estimated scf accuracy    <       0.01045306 Ry

     iteration #  2     ecut=    30.00 Ry     beta=0.30
     Davidson diagonalization with overlap
     ethr =  1.16E-04,  avg # of iterations =  1.0

     total cpu time spent up to now is      139.1 secs

     total energy              =     -37.02130443 Ry
     Harris-Foulkes estimate   =     -37.02322906 Ry
     estimated scf accuracy    <       0.00703570 Ry

     iteration #  3     ecut=    30.00 Ry     beta=0.30
     Davidson diagonalization with overlap
     ethr =  7.82E-05,  avg # of iterations =  1.0

     total cpu time spent up to now is      173.7 secs

     total energy              =     -37.02179463 Ry
     Harris-Foulkes estimate   =     -37.02177861 Ry
     estimated scf accuracy    <       0.00001787 Ry

     iteration #  4     ecut=    30.00 Ry     beta=0.30
     Davidson diagonalization with overlap
     ethr =  1.99E-07,  avg # of iterations =  4.1

     total cpu time spent up to now is      230.9 secs

     total energy              =     -37.02183383 Ry
     Harris-Foulkes estimate   =     -37.02183491 Ry
     estimated scf accuracy    <       0.00001032 Ry

     iteration #  5     ecut=    30.00 Ry     beta=0.30
     Davidson diagonalization with overlap
     ethr =  1.15E-07,  avg # of iterations =  1.0

     total cpu time spent up to now is      263.9 secs

     total energy              =     -37.02183475 Ry
     Harris-Foulkes estimate   =     -37.02183451 Ry
     estimated scf accuracy    <       0.00000039 Ry

     iteration #  6     ecut=    30.00 Ry     beta=0.30
     Davidson diagonalization with overlap
     ethr =  4.35E-09,  avg # of iterations =  2.6

     total cpu time spent up to now is      307.5 secs

     total energy              =     -37.02183472 Ry
     Harris-Foulkes estimate   =     -37.02183507 Ry
     estimated scf accuracy    <       0.00000140 Ry

     iteration #  7     ecut=    30.00 Ry     beta=0.30
     Davidson diagonalization with overlap
     ethr =  4.35E-09,  avg # of iterations =  2.0

     total cpu time spent up to now is      349.8 secs

     total energy              =     -37.02183491 Ry
     Harris-Foulkes estimate   =     -37.02183496 Ry
     estimated scf accuracy    <       0.00000024 Ry

     iteration #  8     ecut=    30.00 Ry     beta=0.30
     Davidson diagonalization with overlap
     ethr =  2.63E-09,  avg # of iterations =  1.0

     total cpu time spent up to now is      384.2 secs

     total energy              =     -37.02183491 Ry
     Harris-Foulkes estimate   =     -37.02183492 Ry
     estimated scf accuracy    <       0.00000002 Ry

     iteration #  9     ecut=    30.00 Ry     beta=0.30
     Davidson diagonalization with overlap
     ethr =  1.93E-10,  avg # of iterations =  2.0

     total cpu time spent up to now is      427.4 secs

     End of self-consistent calculation

     Number of k-points >= 100: set verbosity='high' to print the bands.

     the Fermi energy is     0.7165 ev

!    total energy              =     -37.02183492 Ry
     Harris-Foulkes estimate   =     -37.02183492 Ry
     estimated scf accuracy    <          1.8E-09 Ry

     The total energy is the sum of the following terms:

     one-electron contribution =       3.17995761 Ry
     hartree contribution      =       0.36661939 Ry
     xc contribution           =     -29.05779955 Ry
     ewald contribution        =     -11.51001326 Ry
     smearing contrib. (-TS)   =      -0.00059911 Ry

     convergence has been achieved in   9 iterations

     Forces acting on atoms (Ry/au):

     atom    1 type  1   force =    -0.00000000    0.00000000    0.00000000
     atom    2 type  1   force =     0.00000000    0.00000000    0.00000001
     atom    3 type  1   force =    -0.00000000   -0.00000000   -0.00000001

     Total force =     0.000000     Total SCF correction =     0.000001
     SCF correction compared to forces is large: reduce conv_thr to get better values


     entering subroutine stress ...

          total   stress  (Ry/bohr**3)                   (kbar)     P=  -66.28
  -0.00045036  -0.00000000   0.00000000        -66.25     -0.00      0.00
  -0.00000000  -0.00045036   0.00000000         -0.00    -66.25      0.00
   0.00000000   0.00000000  -0.00045106          0.00      0.00    -66.35


     Writing output data file Al_111_bulk.save

     init_run     :     13.70s CPU     19.97s WALL (       1 calls)
     electrons    :    261.67s CPU    407.42s WALL (       1 calls)
     forces       :      1.34s CPU      1.73s WALL (       1 calls)
     stress       :      7.02s CPU      7.77s WALL (       1 calls)

     Called by init_run:
     wfcinit      :     13.24s CPU     19.49s WALL (       1 calls)
     potinit      :      0.10s CPU      0.10s WALL (       1 calls)

     Called by electrons:
     c_bands      :    221.83s CPU    342.06s WALL (      10 calls)
     sum_band     :     38.81s CPU     64.12s WALL (      10 calls)
     v_of_rho     :      0.62s CPU      0.69s WALL (      10 calls)
     newd         :      0.20s CPU      0.23s WALL (      10 calls)
     mix_rho      :      0.24s CPU      0.34s WALL (      10 calls)

     Called by c_bands:
     init_us_2    :      4.58s CPU      7.10s WALL (   11040 calls)
     cegterg      :    218.54s CPU    336.76s WALL (    4800 calls)

     Called by *egterg:
     h_psi        :    198.58s CPU    306.40s WALL (   14817 calls)
     s_psi        :      4.73s CPU      7.01s WALL (   14817 calls)
     g_psi        :      0.64s CPU      0.94s WALL (    9537 calls)
     cdiaghg      :      1.83s CPU      3.24s WALL (   13857 calls)

     Called by h_psi:
     add_vuspsi   :      4.40s CPU      7.04s WALL (   14817 calls)

     General routines
     calbec       :      7.20s CPU     11.21s WALL (   20577 calls)
     fft          :      0.38s CPU      0.49s WALL (     185 calls)
     ffts         :      0.14s CPU      0.21s WALL (     134 calls)
     fftw         :    210.04s CPU    326.01s WALL (  266998 calls)
     interpolate  :      0.08s CPU      0.09s WALL (      20 calls)
     davcio       :      0.01s CPU      0.13s WALL (     480 calls)

     Parallel routines
     fft_scatter  :      7.53s CPU     12.79s WALL (  267317 calls)

     PWSCF        :  4m44.56s CPU     7m17.93s WALL


   This run was terminated on:  22:51:49  27May2020            

=------------------------------------------------------------------------------=
   JOB DONE.
=------------------------------------------------------------------------------=
